SIRIUS 7.7.0, git hash: https://api.github.com/repos/electronic-structure/SIRIUS/git/ref/tags/v7.7.0
 DBCSR| CPU Multiplication driver                                           BLAS (U)
 DBCSR| Multrec recursion limit                                              512 (U)
 DBCSR| Multiplication stack size                                           1000 (D)
 DBCSR| Maximum elements for images                                    UNLIMITED (U)
 DBCSR| Multiplicative factor virtual images                                   1 (U)
 DBCSR| Use multiplication densification                                       T (D)
 DBCSR| Multiplication size stacks                                             3 (U)
 DBCSR| Use memory pool for CPU allocation                                     F (U)
 DBCSR| Number of 3D layers                                               SINGLE (U)
 DBCSR| Use MPI memory allocation                                              F (U)
 DBCSR| Use RMA algorithm                                                      F (U)
 DBCSR| Use Communication thread                                               T (U)
 DBCSR| Communication thread load                                             75 (D)
 DBCSR| MPI: My process id                                                     0
 DBCSR| MPI: Number of processes                                              48
 DBCSR| OMP: Current number of threads                                         4
 DBCSR| OMP: Max number of threads                                             4
 DBCSR| Split modifier for TAS multiplication algorithm                  1.0E+00 (U)


  **** **** ******  **  PROGRAM STARTED AT               2026-02-18 12:37:50.012
 ***** ** ***  *** **   PROGRAM STARTED ON                                cn0955
 **    ****   ******    PROGRAM STARTED BY                              metdyn02
 ***** **    ** ** **   PROGRAM PROCESS ID                               3417270
  **** **  *******  **  PROGRAM STARTED IN /scratch/hpc-prf-metdyn/metdyn02_Remi
                                           /05_Dyson_orbitals/cp2k/closed/single
                                           topen/B3LYP

 CP2K| version string:                 CP2K version 2025.2 (Development Version)
 CP2K| source code revision number:                                  git:2a4e9c4
 CP2K| cp2kflags: omp libint fftw3 libxc libgrpp elpa parallel scalapack mpi_f08
 CP2K|             cosma xsmm plumed2 spglib sirius libvori libbqb libvdwxc hdf5
 CP2K| is freely available from                            https://www.cp2k.org/
 CP2K| Program compiled at                      Fri Oct 24 04:52:17 PM CEST 2025
 CP2K| Program compiled on                                                login1
 CP2K| Program compiled for                                                local
 CP2K| Data directory path    /opt/software/pc2/EB-SW/software/CP2K/2025.2-foss-
 CP2K| Input file name                                                    GW.inp

 GLOBAL| Force Environment number                                              1
 GLOBAL| Basis set file name            /scratch/hpc-prf-metdyn/metdyn02_Remi/05
 GLOBAL| Potential file name            /pc2/groups/hpc-prf-metdyn/metdyn02_Remi
 GLOBAL| MM Potential file name                                     MM_POTENTIAL
 GLOBAL| Coordinate file name                                      __STD_INPUT__
 GLOBAL| Method name                                                        CP2K
 GLOBAL| Project name                                                       Open
 GLOBAL| Run type                                                         ENERGY
 GLOBAL| FFT library                                                       FFTW3
 GLOBAL| Diagonalization library                                            ELPA
 GLOBAL| Cholesky decomposition library                                ScaLAPACK
 GLOBAL| DGEMM library                                                      BLAS
 GLOBAL| Minimum number of eigenvectors for ELPA usage                        16
 GLOBAL| Orthonormality check for eigenvectors                          DISABLED
 GLOBAL| Matrix multiplication library                                     COSMA
 GLOBAL| All-to-all communication in single precision                          F
 GLOBAL| FFTs using library dependent lengths                                  F
 GLOBAL| Grid backend                                                       AUTO
 GLOBAL| Global print level                                               MEDIUM
 GLOBAL| MPI I/O enabled                                                       T
 GLOBAL| Total number of message passing processes                            48
 GLOBAL| Number of distributed systems (nodes)                                 1
 GLOBAL| Number of threads for this process                                    4
 GLOBAL| This output is from process                                           0
 GLOBAL| OpenMP stack size per thread (OMP_STACKSIZE)                    default
 GLOBAL| CPU model name                          AMD EPYC 9655 96-Core Processor
 GLOBAL| CPUID                                                              1003

 MEMORY| system memory details [Kb]
 MEMORY|                        rank 0           min           max       average
 MEMORY| MemTotal            791038984     791038984     791038984     791038984
 MEMORY| MemFree             725720664     725720664     725720664     725720664
 MEMORY| Buffers                  3192          3192          3192          3192
 MEMORY| Cached               31681524      31681524      31681524      31681524
 MEMORY| Slab                  2310436       2310436       2310436       2310436
 MEMORY| SReclaimable           849016        849016        849016        849016
 MEMORY| MemLikelyFree       758254396     758254396     758254396     758254396


 *** Fundamental physical constants (SI units) ***

 *** Literature: B. J. Mohr and B. N. Taylor,
 ***             CODATA recommended values of the fundamental physical
 ***             constants: 2006, Web Version 5.1
 ***             http://physics.nist.gov/constants

 Speed of light in vacuum [m/s]                             2.99792458000000E+08
 Magnetic constant or permeability of vacuum [N/A**2]       1.25663706143592E-06
 Electric constant or permittivity of vacuum [F/m]          8.85418781762039E-12
 Planck constant (h) [J*s]                                  6.62606896000000E-34
 Planck constant (h-bar) [J*s]                              1.05457162825177E-34
 Elementary charge [C]                                      1.60217648700000E-19
 Electron mass [kg]                                         9.10938215000000E-31
 Electron g factor [ ]                                     -2.00231930436220E+00
 Proton mass [kg]                                           1.67262163700000E-27
 Fine-structure constant                                    7.29735253760000E-03
 Rydberg constant [1/m]                                     1.09737315685270E+07
 Avogadro constant [1/mol]                                  6.02214179000000E+23
 Boltzmann constant [J/K]                                   1.38065040000000E-23
 Atomic mass unit [kg]                                      1.66053878200000E-27
 Bohr radius [m]                                            5.29177208590000E-11

 *** Conversion factors ***

 [u] -> [a.u.]                                              1.82288848426455E+03
 [Angstrom] -> [Bohr] = [a.u.]                              1.88972613288564E+00
 [a.u.] = [Bohr] -> [Angstrom]                              5.29177208590000E-01
 [a.u.] -> [s]                                              2.41888432650478E-17
 [a.u.] -> [fs]                                             2.41888432650478E-02
 [a.u.] -> [J]                                              4.35974393937059E-18
 [a.u.] -> [N]                                              8.23872205491840E-08
 [a.u.] -> [K]                                              3.15774647902944E+05
 [a.u.] -> [kJ/mol]                                         2.62549961709828E+03
 [a.u.] -> [kcal/mol]                                       6.27509468713739E+02
 [a.u.] -> [Pa]                                             2.94210107994716E+13
 [a.u.] -> [bar]                                            2.94210107994716E+08
 [a.u.] -> [atm]                                            2.90362800883016E+08
 [a.u.] -> [eV]                                             2.72113838565563E+01
 [a.u.] -> [Hz]                                             6.57968392072181E+15
 [a.u.] -> [1/cm] (wave numbers)                            2.19474631370540E+05
 [a.u./Bohr**2] -> [1/cm]                                   5.14048714338585E+03
 

 CELL_TOP| Volume [angstrom^3]:                                     27000.000000
 CELL_TOP| Vector a [angstrom    30.000     0.000     0.000   |a| =    30.000000
 CELL_TOP| Vector b [angstrom     0.000    30.000     0.000   |b| =    30.000000
 CELL_TOP| Vector c [angstrom     0.000     0.000    30.000   |c| =    30.000000
 CELL_TOP| Angle (b,c), alpha [degree]:                                90.000000
 CELL_TOP| Angle (a,c), beta  [degree]:                                90.000000
 CELL_TOP| Angle (a,b), gamma [degree]:                                90.000000
 CELL_TOP| Numerically orthorhombic:                                         YES
 CELL_TOP| Periodicity                                                      NONE

 GENERATE|  Preliminary Number of Bonds generated:                             0
 GENERATE|  Achieved consistency in connectivity generation.

 CELL| Volume [angstrom^3]:                                         27000.000000
 CELL| Vector a [angstrom]:      30.000     0.000     0.000   |a| =    30.000000
 CELL| Vector b [angstrom]:       0.000    30.000     0.000   |b| =    30.000000
 CELL| Vector c [angstrom]:       0.000     0.000    30.000   |c| =    30.000000
 CELL| Angle (b,c), alpha [degree]:                                    90.000000
 CELL| Angle (a,c), beta  [degree]:                                    90.000000
 CELL| Angle (a,b), gamma [degree]:                                    90.000000
 CELL| Numerically orthorhombic:                                             YES
 CELL| Periodicity                                                          NONE

 CELL_REF| Volume [angstrom^3]:                                     27000.000000
 CELL_REF| Vector a [angstrom    30.000     0.000     0.000   |a| =    30.000000
 CELL_REF| Vector b [angstrom     0.000    30.000     0.000   |b| =    30.000000
 CELL_REF| Vector c [angstrom     0.000     0.000    30.000   |c| =    30.000000
 CELL_REF| Angle (b,c), alpha [degree]:                                90.000000
 CELL_REF| Angle (a,c), beta  [degree]:                                90.000000
 CELL_REF| Angle (a,b), gamma [degree]:                                90.000000
 CELL_REF| Numerically orthorhombic:                                         YES
 CELL_REF| Periodicity                                                      NONE

 *******************************************************************************
 *******************************************************************************
 **                                                                           **
 **     #####                         ##              ##                      **
 **    ##   ##            ##          ##              ##                      **
 **   ##     ##                       ##            ######                    **
 **   ##     ##  ##   ##  ##   #####  ##  ##   ####   ##    #####    #####    **
 **   ##     ##  ##   ##  ##  ##      ## ##   ##      ##   ##   ##  ##   ##   **
 **   ##  ## ##  ##   ##  ##  ##      ####     ###    ##   ######   ######    **
 **    ##  ###   ##   ##  ##  ##      ## ##      ##   ##   ##       ##        **
 **     #######   #####   ##   #####  ##  ##  ####    ##    #####   ##        **
 **           ##                                                    ##        **
 **                                                                           **
 **                                                ... make the atoms dance   **
 **                                                                           **
 **            Copyright (C) by CP2K developers group (2000-2025)             **
 **                      J. Chem. Phys. 152, 194103 (2020)                    **
 **                                                                           **
 *******************************************************************************

 DFT| Spin unrestricted (spin-polarized) Kohn-Sham calculation               UKS
 DFT| Multiplicity                                                             1
 DFT| Number of spin states                                                    2
 DFT| Charge                                                                   0
 DFT| Self-interaction correction (SIC)                                       NO
 DFT| Cutoffs: density                                              1.000000E-10
 DFT|          gradient                                             1.000000E-10
 DFT|          tau                                                  1.000000E-10
 DFT|          cutoff_smoothing_range                               0.000000E+00
 DFT| XC density smoothing                                                  NONE
 DFT| XC derivatives                                                          PW

 FUNCTIONAL| BECKE88:
 FUNCTIONAL| A. Becke, Phys. Rev. A 38, 3098 (1988) {LSD version}               
 FUNCTIONAL| LYP:
 FUNCTIONAL| C. Lee, W. Yang, R.G. Parr, Phys. Rev. B, 37, 785 (1988) {LSD versi
 FUNCTIONAL| on}                                                                
 FUNCTIONAL| VWN:
 FUNCTIONAL| S. H. Vosko, L. Wilk and M. Nusair, Can. J. Phys. 58, 1200 (1980) {
 FUNCTIONAL| LDA version}                                                       
 FUNCTIONAL| XALPHA:
 FUNCTIONAL| Dirac/Slater local exchange; parameter=  0.6667                    


 QS| Method:                                                                GAPW
 QS| Density plane wave grid type                        NON-SPHERICAL FULLSPACE
 QS| Number of grid levels:                                                    4
 QS| Density cutoff [a.u.]:                                                500.0
 QS| Multi grid cutoff [a.u.]: 1) grid level                               500.0
 QS|                           2) grid level                               166.7
 QS|                           3) grid level                                55.6
 QS|                           4) grid level                                18.5
 QS| Grid level progression factor:                                          3.0
 QS| Relative density cutoff [a.u.]:                                        50.0
 QS| Interaction thresholds: eps_pgf_orb:                                1.0E-12
 QS|                         eps_filter_matrix:                          0.0E+00
 QS|                         eps_core_charge:                            1.0E-14
 QS|                         eps_rho_gspace:                             1.0E-12
 QS|                         eps_rho_rspace:                             1.0E-12
 QS|                         eps_gvg_rspace:                             1.0E-06
 QS|                         eps_ppl:                                    1.0E-02
 QS|                         eps_ppnl:                                   1.0E-08
 QS| GAPW|      One center basis from orbital basis primitives
 QS| GAPW|                   eps_fit:                                    1.0E-04
 QS| GAPW|                   eps_iso:                                    1.0E-12
 QS| GAPW|                   eps_svd:                                    1.0E-08
 QS| GAPW|                   eps_cpc:                                    1.0E-12
 QS| GAPW|   atom-r-grid: quadrature:                                     GC_LOG
 QS| GAPW|      atom-s-grid:  max l :                                          6
 QS| GAPW|      max_l_rho0 :                                                   2


 ATOMIC KIND INFORMATION

  1. Atomic kind: C                                     Number of atoms:      18

     Orbital Basis Set                                                 def2-TZVP

       Number of orbital shell sets:                                          11
       Number of orbital shells:                                              11
       Number of primitive Cartesian functions:                               20
       Number of Cartesian basis functions:                                   36
       Number of spherical basis functions:                                   31
       Norm type:                                                              2

       Normalised Cartesian orbitals:

                        Set   Shell   Orbital            Exponent    Coefficient

                          1       1    1s                0.095164       0.122114

                          2       1    1px               0.100568       0.080727
                          2       1    1py               0.100568       0.080727
                          2       1    1pz               0.100568       0.080727

                          3       1    1s                0.229728       0.236494

                          4       1    1px               0.288875       0.301876
                          4       1    1py               0.288875       0.301876
                          4       1    1pz               0.288875       0.301876

                          5       1    1dx2              0.318000       0.221644
                          5       1    1dxy              0.318000       0.383899
                          5       1    1dxz              0.318000       0.383899
                          5       1    1dy2              0.318000       0.221644
                          5       1    1dyz              0.318000       0.383899
                          5       1    1dz2              0.318000       0.221644

                          6       1    1s                0.576963       0.471815

                          7       1    1fx3              0.761000       0.796288
                          7       1    1fx2y             0.761000       1.780553
                          7       1    1fx2z             0.761000       1.780553
                          7       1    1fxy2             0.761000       1.780553
                          7       1    1fxyz             0.761000       3.084008
                          7       1    1fxz2             0.761000       1.780553
                          7       1    1fy3              0.761000       0.796288
                          7       1    1fy2z             0.761000       1.780553
                          7       1    1fyz2             0.761000       1.780553
                          7       1    1fz3              0.761000       0.796288

                          8       1    1px              34.697232       1.359665
                                                         7.958262       1.451259
                                                         2.378083       1.270923
                                                         0.814332       0.802572
                          8       1    1py              34.697232       1.359665
                                                         7.958262       1.451259
                                                         2.378083       1.270923
                                                         0.814332       0.802572
                          8       1    1pz              34.697232       1.359665
                                                         7.958262       1.451259
                                                         2.378083       1.270923
                                                         0.814332       0.802572

                          9       1    1dx2              1.097000       1.935401
                          9       1    1dxy              1.097000       3.352214
                          9       1    1dxz              1.097000       3.352214
                          9       1    1dy2              1.097000       1.935401
                          9       1    1dyz              1.097000       3.352214
                          9       1    1dz2              1.097000       1.935401

                         10       1    1s                6.206714       1.838354
                                                         2.576490       0.544758

                         11       1    1s            13575.349682       0.543591
                                                      2035.233368       1.014554
                                                       463.225624       1.731573
                                                       131.200196       2.691038
                                                        42.853016       3.604455
                                                        15.584186       3.702556

     RI Auxiliary Basis Set                                      def2-TZVP-RIFIT

       Number of orbital shell sets:                                          22
       Number of orbital shells:                                              22
       Number of primitive Cartesian functions:                               22
       Number of Cartesian basis functions:                                   86
       Number of spherical basis functions:                                   72
       Norm type:                                                              2

       Normalised Cartesian orbitals:

                        Set   Shell   Orbital            Exponent    Coefficient

                          1       1    1s                0.206828       0.218583

                          2       1    1px               0.237606       0.236462
                          2       1    1py               0.237606       0.236462
                          2       1    1pz               0.237606       0.236462

                          3       1    1dx2              0.257531       0.153236
                          3       1    1dxy              0.257531       0.265412
                          3       1    1dxz              0.257531       0.265412
                          3       1    1dy2              0.257531       0.153236
                          3       1    1dyz              0.257531       0.265412
                          3       1    1dz2              0.257531       0.153236

                          4       1    1s                0.405917       0.362442

                          5       1    1px               0.491713       0.586921
                          5       1    1py               0.491713       0.586921
                          5       1    1pz               0.491713       0.586921

                          6       1    1fx3              0.552898       0.388066
                          6       1    1fx2y             0.552898       0.867743
                          6       1    1fx2z             0.552898       0.867743
                          6       1    1fxy2             0.552898       0.867743
                          6       1    1fxyz             0.552898       1.502975
                          6       1    1fxz2             0.552898       0.867743
                          6       1    1fy3              0.552898       0.388066
                          6       1    1fy2z             0.552898       0.867743
                          6       1    1fyz2             0.552898       0.867743
                          6       1    1fz3              0.552898       0.388066

                          7       1    1dx2              0.587935       0.649734
                          7       1    1dxy              0.587935       1.125372
                          7       1    1dxz              0.587935       1.125372
                          7       1    1dy2              0.587935       0.649734
                          7       1    1dyz              0.587935       1.125372
                          7       1    1dz2              0.587935       0.649734

                          8       1    1s                1.074386       0.752108

                          9       1    1px               1.131808       1.664010
                          9       1    1py               1.131808       1.664010
                          9       1    1pz               1.131808       1.664010

                         10       1    1fx3              1.160680       2.058531
                         10       1    1fx2y             1.160680       4.603016
                         10       1    1fx2z             1.160680       4.603016
                         10       1    1fxy2             1.160680       4.603016
                         10       1    1fxyz             1.160680       7.972658
                         10       1    1fxz2             1.160680       4.603016
                         10       1    1fy3              1.160680       2.058531
                         10       1    1fy2z             1.160680       4.603016
                         10       1    1fyz2             1.160680       4.603016
                         10       1    1fz3              1.160680       2.058531

                         11       1    1dx2              1.415016       3.021634
                         11       1    1dxy              1.415016       5.233624
                         11       1    1dxz              1.415016       5.233624
                         11       1    1dy2              1.415016       3.021634
                         11       1    1dyz              1.415016       5.233624
                         11       1    1dz2              1.415016       3.021634

                         12       1    1fx3              2.387017      10.426283
                         12       1    1fx2y             2.387017      23.313877
                         12       1    1fx2z             2.387017      23.313877
                         12       1    1fxy2             2.387017      23.313877
                         12       1    1fxyz             2.387017      40.380819
                         12       1    1fxz2             2.387017      23.313877
                         12       1    1fy3              2.387017      10.426283
                         12       1    1fy2z             2.387017      23.313877
                         12       1    1fyz2             2.387017      23.313877
                         12       1    1fz3              2.387017      10.426283

                         13       1    1px               2.736198       5.016197
                         13       1    1py               2.736198       5.016197
                         13       1    1pz               2.736198       5.016197

                         14       1    1s                3.311579       1.749591

                         15       1    1dx2              3.411677      14.096240
                         15       1    1dxy              3.411677      24.415403
                         15       1    1dxz              3.411677      24.415403
                         15       1    1dy2              3.411677      14.096240
                         15       1    1dyz              3.411677      24.415403
                         15       1    1dz2              3.411677      14.096240

                         16       1    1px               6.379087      14.450678
                         16       1    1py               6.379087      14.450678
                         16       1    1pz               6.379087      14.450678

                         17       1    1dx2              9.067688      77.988119
                         17       1    1dxy              9.067688     135.079385
                         17       1    1dxz              9.067688     135.079385
                         17       1    1dy2              9.067688      77.988119
                         17       1    1dyz              9.067688     135.079385
                         17       1    1dz2              9.067688      77.988119

                         18       1    1s                9.433654       3.836366

                         19       1    1s               23.282845       7.554176

                         20       1    1px              24.794323      78.864291
                         20       1    1py              24.794323      78.864291
                         20       1    1pz              24.794323      78.864291

                         21       1    1s               59.862607      15.338285

                         22       1    1s              281.476933      48.977002

       Atomic covalent radius [Angstrom]:                                  0.770

       Atomic van der Waals radius [Angstrom]:                             1.700

     The atoms of this atomic kind are PAW atoms (GAPW):
       Hard Gaussian function radius:                                      1.512
       Rho0 radius:                                                        1.512
       Maximum GTO radius used for PAW projector construction:            24.566

     GAPW Soft Basis Set                                          def2-TZVP_soft

       Number of orbital shell sets:                                          11
       Number of orbital shells:                                              11
       Number of primitive Cartesian functions:                               11
       Number of Cartesian basis functions:                                   36
       Number of spherical basis functions:                                   31
       Norm type:                                                              2

       Normalised Cartesian orbitals:

                        Set   Shell   Orbital            Exponent    Coefficient

                          1       1    1s                0.095164       0.122114

                          2       1    1px               0.100568       0.080727
                          2       1    1py               0.100568       0.080727
                          2       1    1pz               0.100568       0.080727

                          3       1    1s                0.229728       0.236494

                          4       1    1px               0.288875       0.301876
                          4       1    1py               0.288875       0.301876
                          4       1    1pz               0.288875       0.301876

                          5       1    1dx2              0.318000       0.221644
                          5       1    1dxy              0.318000       0.383899
                          5       1    1dxz              0.318000       0.383899
                          5       1    1dy2              0.318000       0.221644
                          5       1    1dyz              0.318000       0.383899
                          5       1    1dz2              0.318000       0.221644

                          6       1    1s                0.576963       0.471815

                          7       1    1fx3              0.761000       0.796288
                          7       1    1fx2y             0.761000       1.780553
                          7       1    1fx2z             0.761000       1.780553
                          7       1    1fxy2             0.761000       1.780553
                          7       1    1fxyz             0.761000       3.084008
                          7       1    1fxz2             0.761000       1.780553
                          7       1    1fy3              0.761000       0.796288
                          7       1    1fy2z             0.761000       1.780553
                          7       1    1fyz2             0.761000       1.780553
                          7       1    1fz3              0.761000       0.796288

                          8       1    1px               2.378083       1.270923
                                                         0.814332       0.802572
                          8       1    1py               2.378083       1.270923
                                                         0.814332       0.802572
                          8       1    1pz               2.378083       1.270923
                                                         0.814332       0.802572

                          9       1    1dx2              1.097000       1.935401
                          9       1    1dxy              1.097000       3.352214
                          9       1    1dxz              1.097000       3.352214
                          9       1    1dy2              1.097000       1.935401
                          9       1    1dyz              1.097000       3.352214
                          9       1    1dz2              1.097000       1.935401

                         10       1    1s                2.576490       0.544758

                         11       1    1s         

     AE Potential information for                                            ALL

       Description:                                       All-electron potential
                                          Krack, Parrinello, PCCP 2, 2105 (2000)

       Gaussian exponent of the core charge distribution:               4.109048
       Electronic configuration (s p d ...):                           4   2   0

  2. Atomic kind: N                                     Number of atoms:       2

     Orbital Basis Set                                                 def2-TZVP

       Number of orbital shell sets:                                          11
       Number of orbital shells:                                              11
       Number of primitive Cartesian functions:                               20
       Number of Cartesian basis functions:                                   36
       Number of spherical basis functions:                                   31
       Norm type:                                                              2

       Normalised Cartesian orbitals:

                        Set   Shell   Orbital            Exponent    Coefficient

                          1       1    1s                0.136477       0.160031

                          2       1    1px               0.142608       0.124917
                          2       1    1py               0.142608       0.124917
                          2       1    1pz               0.142608       0.124917

                          3       1    1s                0.336471       0.314863

                          4       1    1px               0.416422       0.476823
                          4       1    1py               0.416422       0.476823
                          4       1    1pz               0.416422       0.476823

                          5       1    1dx2              0.469000       0.437484
                          5       1    1dxy              0.469000       0.757744
                          5       1    1dxz              0.469000       0.757744
                          5       1    1dy2              0.469000       0.437484
                          5       1    1dyz              0.469000       0.757744
                          5       1    1dz2              0.469000       0.437484

                          6       1    1s                0.846601       0.629027

                          7       1    1fx3              1.093000       1.798249
                          7       1    1fx2y             1.093000       4.021007
                          7       1    1fx2z             1.093000       4.021007
                          7       1    1fxy2             1.093000       4.021007
                          7       1    1fxyz             1.093000       6.964588
                          7       1    1fxz2             1.093000       4.021007
                          7       1    1fy3              1.093000       1.798249
                          7       1    1fy2z             1.093000       4.021007
                          7       1    1fyz2             1.093000       4.021007
                          7       1    1fz3              1.093000       1.798249

                          8       1    1px              49.200381       2.126481
                                                        11.346791       2.327937
                                                         3.427397       2.048573
                                                         1.178553       1.260732
                          8       1    1py              49.200381       2.126481
                                                        11.346791       2.327937
                                                         3.427397       2.048573
                                                         1.178553       1.260732
                          8       1    1pz              49.200381       2.126481
                                                        11.346791       2.327937
                                                         3.427397       2.048573
                                                         1.178553       1.260732

                          9       1    1dx2              1.654000       3.970513
                          9       1    1dxy              1.654000       6.877130
                          9       1    1dxz              1.654000       6.877130
                          9       1    1dy2              1.654000       3.970513
                          9       1    1dyz              1.654000       6.877130
                          9       1    1dz2              1.654000       3.970513

                         10       1    1s                8.979148       2.388068
                                                         3.686300       0.733788

                         11       1    1s            19730.800647       0.695604
                                                      2957.895874       1.298610
                                                       673.221336       2.219088
                                                       190.682495       3.463661
                                                        62.295442       4.696756
                                                        22.654161       4.952251

     RI Auxiliary Basis Set                                      def2-TZVP-RIFIT

       Number of orbital shell sets:                                          22
       Number of orbital shells:                                              22
       Number of primitive Cartesian functions:                               22
       Number of Cartesian basis functions:                                   86
       Number of spherical basis functions:                                   72
       Norm type:                                                              2

       Normalised Cartesian orbitals:

                        Set   Shell   Orbital            Exponent    Coefficient

                          1       1    1s                0.269072       0.266264

                          2       1    1px               0.335825       0.364403
                          2       1    1py               0.335825       0.364403
                          2       1    1pz               0.335825       0.364403

                          3       1    1dx2              0.350685       0.263035
                          3       1    1dxy              0.350685       0.455591
                          3       1    1dxz              0.350685       0.455591
                          3       1    1dy2              0.350685       0.263035
                          3       1    1dyz              0.350685       0.455591
                          3       1    1dz2              0.350685       0.263035

                          4       1    1s                0.637091       0.508231

                          5       1    1px               0.697694       0.908911
                          5       1    1py               0.697694       0.908911
                          5       1    1pz               0.697694       0.908911

                          6       1    1fx3              0.809476       0.914984
                          6       1    1fx2y             0.809476       2.045966
                          6       1    1fx2z             0.809476       2.045966
                          6       1    1fxy2             0.809476       2.045966
                          6       1    1fxyz             0.809476       3.543717
                          6       1    1fxz2             0.809476       2.045966
                          6       1    1fy3              0.809476       0.914984
                          6       1    1fy2z             0.809476       2.045966
                          6       1    1fyz2             0.809476       2.045966
                          6       1    1fz3              0.809476       0.914984

                          7       1    1dx2              0.859020       1.261582
                          7       1    1dxy              0.859020       2.185125
                          7       1    1dxz              0.859020       2.185125
                          7       1    1dy2              0.859020       1.261582
                          7       1    1dyz              0.859020       2.185125
                          7       1    1dz2              0.859020       1.261582

                          8       1    1s                1.372845       0.903912

                          9       1    1fx3              1.668650       4.658826
                          9       1    1fx2y             1.668650      10.417452
                          9       1    1fx2z             1.668650      10.417452
                          9       1    1fxy2             1.668650      10.417452
                          9       1    1fxyz             1.668650      18.043557
                          9       1    1fxz2             1.668650      10.417452
                          9       1    1fy3              1.668650       4.658826
                          9       1    1fy2z             1.668650      10.417452
                          9       1    1fyz2             1.668650      10.417452
                          9       1    1fz3              1.668650       4.658826

                         10       1    1px               1.675690       2.717580
                         10       1    1py               1.675690       2.717580
                         10       1    1pz               1.675690       2.717580

                         11       1    1dx2              2.091250       5.985769
                         11       1    1dxy              2.091250      10.367656
                         11       1    1dxz              2.091250      10.367656
                         11       1    1dy2              2.091250       5.985769
                         11       1    1dyz              2.091250      10.367656
                         11       1    1dz2              2.091250       5.985769

                         12       1    1fx3              3.468654      24.172222
                         12       1    1fx2y             3.468654      54.050731
                         12       1    1fx2z             3.468654      54.050731
                         12       1    1fxy2             3.468654      54.050731
                         12       1    1fxyz             3.468654      93.618612
                         12       1    1fxz2             3.468654      54.050731
                         12       1    1fy3              3.468654      24.172222
                         12       1    1fy2z             3.468654      54.050731
                         12       1    1fyz2             3.468654      54.050731
                         12       1    1fz3              3.468654      24.172222

                         13       1    1s                3.606548       1.865215

                         14       1    1px               3.969584       7.986774
                         14       1    1py               3.969584       7.986774
                         14       1    1pz               3.969584       7.986774

                         15       1    1dx2              5.029166      27.798888
                         15       1    1dxy              5.029166      48.149086
                         15       1    1dxz              5.029166      48.149086
                         15       1    1dy2              5.029166      27.798888
                         15       1    1dyz              5.029166      48.149086
                         15       1    1dz2              5.029166      27.798888

                         16       1    1px               8.669271      21.204025
                         16       1    1py               8.669271      21.204025
                         16       1    1pz               8.669271      21.204025

                         17       1    1s                9.067115       3.724020

                         18       1    1dx2             12.727173     141.153089
                         18       1    1dxy             12.727173     244.484323
                         18       1    1dxz             12.727173     244.484323
                         18       1    1dy2             12.727173     141.153089
                         18       1    1dyz             12.727173     244.484323
                         18       1    1dz2             12.727173     141.153089

                         19       1    1s               21.981132       7.235152

                         20       1    1px              34.121692     117.551530
                         20       1    1py              34.121692     117.551530
                         20       1    1pz              34.121692     117.551530

                         21       1    1s               62.030532      15.753034

                         22       1    1s              291.183943      50.238384

       Atomic covalent radius [Angstrom]:                                  0.750

       Atomic van der Waals radius [Angstrom]:                             1.550

     The atoms of this atomic kind are PAW atoms (GAPW):
       Hard Gaussian function radius:                                      1.512
       Rho0 radius:                                                        1.512
       Maximum GTO radius used for PAW projector construction:            24.566

     GAPW Soft Basis Set                                          def2-TZVP_soft

       Number of orbital shell sets:                                          11
       Number of orbital shells:                                              11
       Number of primitive Cartesian functions:                               11
       Number of Cartesian basis functions:                                   36
       Number of spherical basis functions:                                   31
       Norm type:                                                              2

       Normalised Cartesian orbitals:

                        Set   Shell   Orbital            Exponent    Coefficient

                          1       1    1s                0.136477       0.160031

                          2       1    1px               0.142608       0.124917
                          2       1    1py               0.142608       0.124917
                          2       1    1pz               0.142608       0.124917

                          3       1    1s                0.336471       0.314863

                          4       1    1px               0.416422       0.476823
                          4       1    1py               0.416422       0.476823
                          4       1    1pz               0.416422       0.476823

                          5       1    1dx2              0.469000       0.437484
                          5       1    1dxy              0.469000       0.757744
                          5       1    1dxz              0.469000       0.757744
                          5       1    1dy2              0.469000       0.437484
                          5       1    1dyz              0.469000       0.757744
                          5       1    1dz2              0.469000       0.437484

                          6       1    1s                0.846601       0.629027

                          7       1    1fx3              1.093000       1.798249
                          7       1    1fx2y             1.093000       4.021007
                          7       1    1fx2z             1.093000       4.021007
                          7       1    1fxy2             1.093000       4.021007
                          7       1    1fxyz             1.093000       6.964588
                          7       1    1fxz2             1.093000       4.021007
                          7       1    1fy3              1.093000       1.798249
                          7       1    1fy2z             1.093000       4.021007
                          7       1    1fyz2             1.093000       4.021007
                          7       1    1fz3              1.093000       1.798249

                          8       1    1px               3.427397       2.048573
                                                         1.178553       1.260732
                          8       1    1py               3.427397       2.048573
                                                         1.178553       1.260732
                          8       1    1pz               3.427397       2.048573
                                                         1.178553       1.260732

                          9       1    1dx2              1.654000       3.970513
                          9       1    1dxy              1.654000       6.877130
                          9       1    1dxz              1.654000       6.877130
                          9       1    1dy2              1.654000       3.970513
                          9       1    1dyz              1.654000       6.877130
                          9       1    1dz2              1.654000       3.970513

                         10       1    1s                3.686300       0.733788

                         11       1    1s         

     AE Potential information for                                            ALL

       Description:                                       All-electron potential
                                          Krack, Parrinello, PCCP 2, 2105 (2000)

       Gaussian exponent of the core charge distribution:               5.979100
       Electronic configuration (s p d ...):                           4   3   0

  3. Atomic kind: H                                     Number of atoms:       8

     Orbital Basis Set                                                 def2-TZVP

       Number of orbital shell sets:                                           4
       Number of orbital shells:                                               4
       Number of primitive Cartesian functions:                                6
       Number of Cartesian basis functions:                                    6
       Number of spherical basis functions:                                    6
       Norm type:                                                              2

       Normalised Cartesian orbitals:

                        Set   Shell   Orbital            Exponent    Coefficient

                          1       1    1s                0.103072       0.129648

                          2       1    1s                0.327230       0.308355

                          3       1    1px               0.800000       1.078456
                          3       1    1py               0.800000       1.078456
                          3       1    1pz               0.800000       1.078456

                          4       1    1s               34.061341       0.255630
                                                         5.123575       0.461360
                                                         1.164663       0.681121

     RI Auxiliary Basis Set                                      def2-TZVP-RIFIT

       Number of orbital shell sets:                                           7
       Number of orbital shells:                                               7
       Number of primitive Cartesian functions:                                7
       Number of Cartesian basis functions:                                   13
       Number of spherical basis functions:                                   13
       Norm type:                                                              2

       Normalised Cartesian orbitals:

                        Set   Shell   Orbital            Exponent    Coefficient

                          1       1    1s                0.264481       0.262849

                          2       1    1s                0.595125       0.482910

                          3       1    1px               0.595224       0.745230
                          3       1    1py               0.595224       0.745230
                          3       1    1pz               0.595224       0.745230

                          4       1    1px               1.354038       2.081991
                          4       1    1py               1.354038       2.081991
                          4       1    1pz               1.354038       2.081991

                          5       1    1s                1.861107       1.135635

                          6       1    1px               2.452498       4.374727
                          6       1    1py               2.452498       4.374727
                          6       1    1pz               2.452498       4.374727

                          7       1    1s                9.335216       3.806303

       Atomic covalent radius [Angstrom]:                                  0.320

       Atomic van der Waals radius [Angstrom]:                             1.090

     The atoms of this atomic kind are PAW atoms (GAPW):
       Hard Gaussian function radius:                                      1.200
       Rho0 radius:                                                        1.200
       Maximum GTO radius used for PAW projector construction:            24.566

     GAPW Soft Basis Set                                          def2-TZVP_soft

       Number of orbital shell sets:                                           4
       Number of orbital shells:                                               4
       Number of primitive Cartesian functions:                                5
       Number of Cartesian basis functions:                                    6
       Number of spherical basis functions:                                    6
       Norm type:                                                              2

       Normalised Cartesian orbitals:

                        Set   Shell   Orbital            Exponent    Coefficient

                          1       1    1s                0.103072       0.129648

                          2       1    1s                0.327230       0.308355

                          3       1    1px               0.800000       1.078456
                          3       1    1py               0.800000       1.078456
                          3       1    1pz               0.800000       1.078456

                          4       1    1s                5.123575       0.461360
                                                         1.164663       0.681121

     AE Potential information for                                            ALL

       Description:                                       All-electron potential
                                          Krack, Parrinello, PCCP 2, 2105 (2000)

       Gaussian exponent of the core charge distribution:              12.500000
       Electronic configuration (s p d ...):                           1   0   0


 MOLECULE KIND INFORMATION


 All atoms are their own molecule, skipping detailed information


 TOTAL NUMBERS AND MAXIMUM NUMBERS

  Total number of            - Atomic kinds:                                   3
                             - Atoms:                                         28
                             - Shell sets:                                   252
                             - Shells:                                       252
                             - Primitive Cartesian functions:                448
                             - Cartesian basis functions:                    768
                             - Spherical basis functions:                    668

  Maximum angular momentum of the orbital basis functions:                     3


 MODULE QUICKSTEP: ATOMIC COORDINATES IN ANGSTROM

   Atom Kind Element         X             Y             Z       Z(eff)     Mass
      1    1 C     6     12.245819     17.956524     14.999918   6.0000  12.0107
      2    1 C     6     13.012233     19.100765     14.999921   6.0000  12.0107
      3    1 C     6     14.169333     19.532044     14.999937   6.0000  12.0107
      4    1 C     6     12.939687     16.741813     14.999955   6.0000  12.0107
      5    1 C     6     14.337324     16.594294     14.999965   6.0000  12.0107
      6    1 C     6     15.356890     17.551302     14.999964   6.0000  12.0107
      7    1 C     6     15.447089     19.014418     14.999959   6.0000  12.0107
      8    1 C     6     16.809260     19.325092     15.000108   6.0000  12.0107
      9    1 C     6     16.655090     17.016905     14.999908   6.0000  12.0107
     10    1 C     6     17.542388     18.105290     14.999802   6.0000  12.0107
     11    1 C     6     15.072623     15.301285     14.999957   6.0000  12.0107
     12    1 C     6     16.513167     15.570467     14.999947   6.0000  12.0107
     13    2 N     7     14.568577     14.109640     14.999967   7.0000  14.0067
     14    2 N     7     17.396300     14.614444     14.999931   7.0000  14.0067
     15    1 C     6     15.482200     13.082251     14.999965   6.0000  12.0107
     16    1 C     6     16.887210     13.338630     14.999944   6.0000  12.0107
     17    1 C     6     15.019689     11.754102     14.999986   6.0000  12.0107
     18    1 C     6     15.912163     10.707339     14.999983   6.0000  12.0107
     19    1 C     6     17.296459     10.957388     14.999960   6.0000  12.0107
     20    1 C     6     17.775529     12.247441     14.999940   6.0000  12.0107
     21    3 H     1     13.949982     11.589881     15.000002   1.0000   1.0079
     22    3 H     1     15.550805      9.687197     14.999998   1.0000   1.0079
     23    3 H     1     17.989656     10.125886     14.999958   1.0000   1.0079
     24    3 H     1     18.836585     12.459568     14.999921   1.0000   1.0079
     25    3 H     1     17.241290     20.312803     15.000254   1.0000   1.0079
     26    3 H     1     18.620955     18.046036     14.999746   1.0000   1.0079
     27    3 H     1     12.362167     15.824243     14.999942   1.0000   1.0079
     28    3 H     1     11.163415     17.960081     14.999879   1.0000   1.0079



 SCF PARAMETERS         Density guess:                                    ATOMIC
                        --------------------------------------------------------
                        max_scf:                                             500
                        max_scf_history:                                       0
                        max_diis:                                              4
                        --------------------------------------------------------
                        eps_scf:                                        1.00E-06
                        eps_scf_history:                                0.00E+00
                        eps_diis:                                       1.00E-01
                        eps_eigval:                                     1.00E-05
                        --------------------------------------------------------
                        level_shift [a.u.]:                             0.000000
                        added MOs                                       603  603
                        --------------------------------------------------------
                        Mixing method:                            BROYDEN_MIXING
                                                charge density mixing in g-space
                        --------------------------------------------------------
                        No outer SCF

 PW_GRID| Information for grid number                                          1
 PW_GRID| Grid distributed over                                    48 processors
 PW_GRID| Real space group dimensions                                    48    1
 PW_GRID| the grid is blocked:                                                NO
 PW_GRID| Cutoff [a.u.]                                                    500.0
 PW_GRID| spherical cutoff:                                                   NO
 PW_GRID|   Bounds   1           -288     287                Points:         576
 PW_GRID|   Bounds   2           -288     287                Points:         576
 PW_GRID|   Bounds   3           -288     287                Points:         576
 PW_GRID| Volume element (a.u.^3)  0.9534E-03     Volume (a.u.^3)    182205.0337
 PW_GRID| Grid span                                                    FULLSPACE
 PW_GRID|   Distribution                         Average         Max         Min
 PW_GRID|   G-Vectors                          3981312.0     3981312     3981312
 PW_GRID|   G-Rays                                6912.0        6912        6912
 PW_GRID|   Real Space Points                  3981312.0     3981312     3981312

 PW_GRID| Information for grid number                                          2
 PW_GRID| Number of the reference grid                                         1
 PW_GRID| Grid distributed over                                    48 processors
 PW_GRID| Real space group dimensions                                    48    1
 PW_GRID| the grid is blocked:                                                NO
 PW_GRID| Cutoff [a.u.]                                                    166.7
 PW_GRID| spherical cutoff:                                                   NO
 PW_GRID|   Bounds   1           -180     179                Points:         360
 PW_GRID|   Bounds   2           -180     179                Points:         360
 PW_GRID|   Bounds   3           -180     179                Points:         360
 PW_GRID| Volume element (a.u.^3)  0.3905E-02     Volume (a.u.^3)    182205.0337
 PW_GRID| Grid span                                                    FULLSPACE
 PW_GRID|   Distribution                         Average         Max         Min
 PW_GRID|   G-Vectors                           972000.0      972720      971640
 PW_GRID|   G-Rays                                2700.0        2702        2699
 PW_GRID|   Real Space Points                   972000.0     1036800      907200

 PW_GRID| Information for grid number                                          3
 PW_GRID| Number of the reference grid                                         1
 PW_GRID| Grid distributed over                                    48 processors
 PW_GRID| Real space group dimensions                                    48    1
 PW_GRID| the grid is blocked:                                                NO
 PW_GRID| Cutoff [a.u.]                                                     55.6
 PW_GRID| spherical cutoff:                                                   NO
 PW_GRID|   Bounds   1            -96      95                Points:         192
 PW_GRID|   Bounds   2            -96      95                Points:         192
 PW_GRID|   Bounds   3            -96      95                Points:         192
 PW_GRID| Volume element (a.u.^3)  0.2574E-01     Volume (a.u.^3)    182205.0337
 PW_GRID| Grid span                                                    FULLSPACE
 PW_GRID|   Distribution                         Average         Max         Min
 PW_GRID|   G-Vectors                           147456.0      147648      147264
 PW_GRID|   G-Rays                                 768.0         769         767
 PW_GRID|   Real Space Points                   147456.0      147456      147456

 PW_GRID| Information for grid number                                          4
 PW_GRID| Number of the reference grid                                         1
 PW_GRID| Grid distributed over                                    48 processors
 PW_GRID| Real space group dimensions                                    48    1
 PW_GRID| the grid is blocked:                                                NO
 PW_GRID| Cutoff [a.u.]                                                     18.5
 PW_GRID| spherical cutoff:                                                   NO
 PW_GRID|   Bounds   1            -60      59                Points:         120
 PW_GRID|   Bounds   2            -60      59                Points:         120
 PW_GRID|   Bounds   3            -60      59                Points:         120
 PW_GRID| Volume element (a.u.^3)  0.1054         Volume (a.u.^3)    182205.0337
 PW_GRID| Grid span                                                    FULLSPACE
 PW_GRID|   Distribution                         Average         Max         Min
 PW_GRID|   G-Vectors                            36000.0       36240       35880
 PW_GRID|   G-Rays                                 300.0         302         299
 PW_GRID|   Real Space Points                    36000.0       43200       28800

 POISSON| Solver                                                         WAVELET
 POISSON| Wavelet| Scaling function                                           40
 POISSON| Periodicity                                                       NONE

 RS_GRID| Information for grid number                                          1
 RS_GRID|   Bounds   1           -288     287                Points:         576
 RS_GRID|   Bounds   2           -288     287                Points:         576
 RS_GRID|   Bounds   3           -288     287                Points:         576
 RS_GRID| Real space distribution over                                  3 groups
 RS_GRID| Real space distribution along direction                              1
 RS_GRID| Border size                                                         34
 RS_GRID| Real space distribution over                                  4 groups
 RS_GRID| Real space distribution along direction                              2
 RS_GRID| Border size                                                         34
 RS_GRID| Real space distribution over                                  4 groups
 RS_GRID| Real space distribution along direction                              3
 RS_GRID| Border size                                                         34
 RS_GRID|   Distribution                         Average         Max         Min
 RS_GRID|   Planes                                 260.0         260         260
 RS_GRID|   Distribution                         Average         Max         Min
 RS_GRID|   Planes                                 212.0         212         212
 RS_GRID|   Distribution                         Average         Max         Min
 RS_GRID|   Planes                                 212.0         212         212

 RS_GRID| Information for grid number                                          2
 RS_GRID|   Bounds   1           -180     179                Points:         360
 RS_GRID|   Bounds   2           -180     179                Points:         360
 RS_GRID|   Bounds   3           -180     179                Points:         360
 RS_GRID| Real space distribution over                                  3 groups
 RS_GRID| Real space distribution along direction                              1
 RS_GRID| Border size                                                         38
 RS_GRID| Real space distribution over                                  4 groups
 RS_GRID| Real space distribution along direction                              2
 RS_GRID| Border size                                                         38
 RS_GRID| Real space distribution over                                  4 groups
 RS_GRID| Real space distribution along direction                              3
 RS_GRID| Border size                                                         38
 RS_GRID|   Distribution                         Average         Max         Min
 RS_GRID|   Planes                                 196.0         196         196
 RS_GRID|   Distribution                         Average         Max         Min
 RS_GRID|   Planes                                 166.0         166         166
 RS_GRID|   Distribution                         Average         Max         Min
 RS_GRID|   Planes                                 166.0         166         166

 RS_GRID| Information for grid number                                          3
 RS_GRID|   Bounds   1            -96      95                Points:         192
 RS_GRID|   Bounds   2            -96      95                Points:         192
 RS_GRID|   Bounds   3            -96      95                Points:         192
 RS_GRID| Real space fully replicated
 RS_GRID| Group size                                                           1

 RS_GRID| Information for grid number                                          4
 RS_GRID|   Bounds   1            -60      59                Points:         120
 RS_GRID|   Bounds   2            -60      59                Points:         120
 RS_GRID|   Bounds   3            -60      59                Points:         120
 RS_GRID| Real space fully replicated
 RS_GRID| Group size                                                           1

  HFX_INFO| Replica ID:                                                        1
  HFX_INFO| FRACTION:                                               0.2000000000
  HFX_INFO| Interaction Potential:                                       COULOMB
  HFX_INFO| EPS_SCHWARZ:                                                 1.0E-10
  HFX_INFO| EPS_SCHWARZ_FORCES                                           1.0E-08
  HFX_INFO| EPS_STORAGE_SCALING:                                         1.0E+00
  HFX_INFO| NBINS:                                                            64
  HFX_INFO| BLOCK_SIZE:                                                        1
  HFX_INFO| Number of periodic shells considered:                           NONE
  HFX_INFO| Number of periodic cells considered:                            NONE

 
 RI-RPA| using GPW style
 

 *** WARNING in qs_scf_initialization.F:1037 :: The numerical rank of the  ***
 *** overlap matrix is lower than the number of requested MOs! Reduce the  ***
 *** number of MOs to the number of available MOs. If necessary, request a ***
 *** lower number of MOs or increase EPS_DEFAULT or EPS_PGF_ORB.           ***


 *** WARNING in qs_scf_initialization.F:1037 :: The numerical rank of the  ***
 *** overlap matrix is lower than the number of requested MOs! Reduce the  ***
 *** number of MOs to the number of available MOs. If necessary, request a ***
 *** lower number of MOs or increase EPS_DEFAULT or EPS_PGF_ORB.           ***


 Extrapolation method: initial_guess

 Atomic guess: The first density matrix is obtained in terms of atomic orbitals
               and electronic configurations assigned to each atomic kind

 Guess for atomic kind: C

 Electronic structure
    Total number of core electrons                                          0.00
    Total number of valence electrons                                       6.00
    Total number of electrons                                               6.00
    Multiplicity                                                   not specified
    S      2.00  2.00
    P      2.00


 *******************************************************************************
                  Iteration          Convergence                     Energy [au]
 *******************************************************************************
                          1        0.147208                     -37.407693601264
                          2        0.119028                     -37.412727810384
                          3        0.151591E-02                 -37.421609589284
                          4        0.252468E-03                 -37.421611675915
                          5        0.320487E-05                 -37.421611714904
                          6        0.162446E-06                 -37.421611714918

 Energy components [Hartree]           Total Energy ::          -37.421611714918
                                        Band Energy ::          -21.277675770449
                                     Kinetic Energy ::           37.196286588355
                                   Potential Energy ::          -74.617898303274
                                      Virial (-V/T) ::            2.006057731758
                                        Core Energy ::          -50.332032480142
                                          XC Energy ::           -4.732819490143
                                     Coulomb Energy ::           17.643240255367

 Orbital energies  State     L     Occupation   Energy[a.u.]          Energy[eV]

                       1     0          2.000      -9.943251         -270.569607
                       2     0          2.000      -0.498684          -13.569893

                       1     1          2.000      -0.196903           -5.358002


 Total Electron Density at R=0:                                       121.622713

 Guess for atomic kind: N

 Electronic structure
    Total number of core electrons                                          0.00
    Total number of valence electrons                                       7.00
    Total number of electrons                                               7.00
    Multiplicity                                                   not specified
    S      2.00  2.00
    P      3.00


 *******************************************************************************
                  Iteration          Convergence                     Energy [au]
 *******************************************************************************
                          1        0.380519                     -53.980466341384
                          2        0.378247                     -53.984135962459
                          3        0.134995E-01                 -54.018715315788
                          4        0.495764E-03                 -54.018772519246
                          5        0.432099E-04                 -54.018772571804
                          6        0.442273E-07                 -54.018772572302

 Energy components [Hartree]           Total Energy ::          -54.018772572302
                                        Band Energy ::          -30.143749938617
                                     Kinetic Energy ::           53.734490267735
                                   Potential Energy ::         -107.753262840037
                                      Virial (-V/T) ::            2.005290499699
                                        Core Energy ::          -73.699523175202
                                          XC Energy ::           -6.145173260726
                                     Coulomb Energy ::           25.825923863626

 Orbital energies  State     L     Occupation   Energy[a.u.]          Energy[eV]

                       1     0          2.000     -14.006310         -381.131070
                       2     0          2.000      -0.672190          -18.291221

                       1     1          3.000      -0.262250           -7.136190


 Total Electron Density at R=0:                                       197.177759

 Guess for atomic kind: H

 Electronic structure
    Total number of core electrons                                          0.00
    Total number of valence electrons                                       1.00
    Total number of electrons                                               1.00
    Multiplicity                                                   not specified
    S      1.00


 *******************************************************************************
                  Iteration          Convergence                     Energy [au]
 *******************************************************************************
                          1        0.917598E-02                  -0.444895232610
                          2        0.101733E-02                  -0.444969959338
                          3        0.739292E-04                  -0.444971980690
                          4        0.601377E-07                  -0.444971989573

 Energy components [Hartree]           Total Energy ::           -0.444971989573
                                        Band Energy ::           -0.230448725171
                                     Kinetic Energy ::            0.428990089350
                                   Potential Energy ::           -0.873962078923
                                      Virial (-V/T) ::            2.037254707321
                                        Core Energy ::           -0.496265746842
                                          XC Energy ::           -0.234272986041
                                     Coulomb Energy ::            0.285566743311

 Orbital energies  State     L     Occupation   Energy[a.u.]          Energy[eV]

                       1     0          1.000      -0.230449           -6.270829


 Total Electron Density at R=0:                                         0.247098

 Spin 1
 Re-scaling the density matrix to get the right number of electrons for spin 1
                  # Electrons              Trace(P)               Scaling factor
                           65                65.000                        1.000

 Spin 2
 Re-scaling the density matrix to get the right number of electrons for spin 2
                  # Electrons              Trace(P)               Scaling factor
                           65                65.000                        1.000

 Spin 1

 Number of electrons:                                                         65
 Number of occupied orbitals:                                                 65
 Number of molecular orbitals:                                               665

 Spin 2

 Number of electrons:                                                         65
 Number of occupied orbitals:                                                 65
 Number of molecular orbitals:                                               665

 Number of orbital functions:                                                668
 Number of independent orbital functions:                                    665


 SCF WAVEFUNCTION OPTIMIZATION

  Step     Update method      Time    Convergence         Total energy    Change
  ------------------------------------------------------------------------------

  HFX_MEM_INFO| Est. max. program size before HFX [MiB]:                    4383
  HFX_MEM_INFO| Number of cart. primitive ERI's calculated:          59153798858
  HFX_MEM_INFO| Number of sph. ERI's calculated:                     14487851605
  HFX_MEM_INFO| Number of sph. ERI's stored in-core:                 14487851605
  HFX_MEM_INFO| Number of sph. ERI's stored on disk:                           0
  HFX_MEM_INFO| Number of sph. ERI's calculated on the fly:                    0
  HFX_MEM_INFO| Total memory consumption ERI's RAM [MiB]:                  36746
  HFX_MEM_INFO| Whereof max-vals [MiB]:                                      152
[...]
 LIBXSMM: Accelerating Small Matrix Multiplications by Runtime Code Generation.
 https://doi.org/10.1109/SC.2016.83

 M. Del Ben, O. Schuett, T. Wentz, P. Messmer, J. Hutter, J. VandeVondele.
 Comput. Phys. Commun. 187, 120-129 (2015).
 Enabling simulation at the fifth rung of DFT: Large scale RPA calculations with 
 excellent time to solution.
 https://doi.org/10.1016/j.cpc.2014.10.021

 J. Hutter, M. Iannuzzi, F. Schiffmann, J. VandeVondele.
 WIREs Comput Mol Sci. 4, 15-25 (2014).
 CP2K: atomistic simulations of condensed matter systems.
 https://doi.org/10.1002/wcms.1159

 U. Borstnik, J. VandeVondele, V. Weber, J. Hutter.
 Parallel Comput. 40, 47-58 (2014).
 Sparse matrix multiplication: The distributed block-compressed sparse row 
 library.
 https://doi.org/10.1016/j.parco.2014.03.012

 A. Marek, V. Blum, R. Johanni, V. Havu, B. Lang, T. Auckenthaler, A. Heinecke, 
 H. Bungartz, H. Lederer.
 J. Phys. Condens. Matter 26, 213201 (2014).
 The ELPA library: scalable parallel eigenvalue solutions for electronic 
 structure theory and computational science.
 https://doi.org/10.1088/0953-8984/26/21/213201

 M. Del Ben, J. Hutter, J. VandeVondele.
 J. Chem. Theory Comput. 9, 2654-2671 (2013).
 Electron Correlation in the Condensed Phase from a Resolution of Identity 
 Approach Based on the Gaussian and Plane Waves Scheme.
 https://doi.org/10.1021/ct4002202

 M. Del Ben, J. Hutter, J. VandeVondele.
 J. Chem. Theory Comput. 8, 4177-4188 (2012).
 Second-Order Moller-Plesset Perturbation Theory in the Condensed Phase: An 
 Efficient and Massively Parallel Gaussian and Plane Waves Approach.
 https://doi.org/10.1021/ct300531w

 M. Guidon, J. Hutter, J. VandeVondele.
 J. Chem. Theory Comput. 5, 3010-3021 (2009).
 Robust Periodic Hartree-Fock Exchange for Large-Scale Simulations Using 
 Gaussian Basis Sets.
 https://doi.org/10.1021/ct900494g

 M. Guidon, F. Schiffmann, J. Hutter, J. VandeVondele.
 J. Chem. Phys. 128, 214104 (2008).
 Ab initio molecular dynamics using hybrid density functionals.
 https://doi.org/10.1063/1.2931945

 L. Genovese, T. Deutsch, S. Goedecker.
 J. Chem. Phys. 127, 054704 (2007).
 Efficient and accurate three-dimensional Poisson solver for surface problems.
 https://doi.org/10.1063/1.2754685

 L. Genovese, T. Deutsch, A. Neelov, S. Goedecker, G. Beylkin.
 J. Chem. Phys. 125, 074105 (2006).
 Efficient solution of Poisson's equation with free boundary conditions.
 https://doi.org/10.1063/1.2335442

 M. Frigo, S. G. Johnson.
 Proc. IEEE 93, 216-231 (2005).
 The design and implementation of FFTW3.
 https://doi.org/10.1109/JPROC.2004.840301

 M. Krack, M. Parrinello.
 Phys. Chem. Chem. Phys. 2, 2105-2112 (2000).
 All-electron ab-initio molecular dynamics.
 https://doi.org/10.1039/b001167n

 G. Lippert, J. Hutter, M. Parrinello.
 Theor. Chem. Acc. 103, 124-140 (1999).
 The Gaussian and augmented-plane-wave density functional method for ab initio 
 molecular dynamics simulations.
 https://doi.org/10.1007/s002140050523

 A. D. Becke.
 Phys. Rev. A 38, 3098-3100 (1988).
 Density-functional exchange-energy approximation with correct asymptotic 
 behavior.
 https://doi.org/10.1103/PhysRevA.38.3098

 C. T. Lee, W. T. Yang, R. G. Parr.
 Phys. Rev. B 37, 785-789 (1988).
 Development of the Colle-Salvetti correlation-energy formula into a functional 
 of the electron density.
 https://doi.org/10.1103/PhysRevB.37.785

 S. H. Vosko, L. Wilk, M. Nusair.
 Can. J. Phys. 58, 1200-1211 (1980).
 Accurate spin-dependent electron liquid correlation energies for local spin 
 density calculations: a critical analysis.
 https://doi.org/10.1139/p80-159


 -------------------------------------------------------------------------------
 -                                                                             -
 -                                T I M I N G                                  -
 -                                                                             -
 -------------------------------------------------------------------------------
 SUBROUTINE                       CALLS  ASD         SELF TIME        TOTAL TIME
                                MAXIMUM       AVERAGE  MAXIMUM  AVERAGE  MAXIMUM
 CP2K                                 1  1.0    0.096    0.101  707.613  707.648
 qs_energies                          1  2.0    0.001    0.006  706.702  706.751
 scf_env_do_scf                       1  3.0    0.002    0.002  616.344  616.376
 scf_env_do_scf_inner_loop           70  4.0    0.003    0.005  616.343  616.374
 qs_ks_build_kohn_sham_matrix        71  7.0    0.019    0.021  432.044  432.063
 qs_ks_update_qs_env                 70  5.0    0.001    0.001  429.041  429.060
 rebuild_ks_matrix                   70  6.0    0.000    0.000  429.033  429.052
 fft_wrap_pw1pw2                   2880  9.8    0.052    0.060  316.302  321.614
 fft_wrap_pw1pw2_500               1908 11.2   12.525   13.619  305.042  310.689
 fft3d_ps                          2880 11.8  165.274  168.810  249.507  257.437
 qs_vxc_create                       71  8.0    0.002    0.004  209.361  210.625
 xc_vxc_pw_create                    70  9.0    3.969    4.731  209.359  210.621
 xc_pw_derive                       840 11.0    0.007    0.008  149.983  153.881
 xc_rho_set_and_dset_create          70 10.0    5.272    6.213  109.435  113.140
 xc_pw_divergence                   140 10.0    0.004    0.005   92.248   96.362
 qs_rho_update_rho_low               71  5.0    0.002    0.002   94.684   94.688
 calculate_rho_elec                 142  6.0    1.071    1.167   94.392   94.397
 gspace_mixing                       69  5.0    1.042    1.118   91.032   91.037
 pw_poisson_solve                    71  8.0    2.390    2.542   75.157   75.271
 density_rs2pw                      142  7.0    0.007    0.008   66.103   69.717
 hfx_ks_matrix                       71  8.0    0.002    0.002   62.523   62.562
 integrate_four_center               71  9.0    1.371    1.467   62.515   62.554
 mp_alltoall_z22v                  2880 13.8   46.499   60.396   46.499   60.396
 integrate_four_center_main          71 10.0    0.193    0.465   57.880   59.487
 integrate_four_center_bin         6683 11.0   57.687   59.376   57.687   59.376
 broyden_mixing                      69  6.0   54.926   55.734   57.936   58.007
 x_to_yz                           1448 13.2   22.812   24.530   49.372   55.063
 mp2_main                             1  3.0    0.000    0.000   48.503   48.519
 sum_up_and_integrate                71  8.0    0.001    0.002   46.268   46.291
 mp2_gpw_main                         1  4.0    0.001    0.001   45.339   45.341
 integrate_v_rspace                 142  9.0    0.003    0.004   45.190   45.244
 rpa_ri_compute_en                    1  5.0    0.000    0.000   43.361   43.363
 rpa_num_int                          1  6.0    0.008    0.009   43.162   43.164
 yz_to_x                           1432 12.5   14.852   15.627   34.790   41.004
 scf_post_calculation_gpw             1  3.0    0.000    0.000   39.973   39.975
 ps_wavelet_solve                    71  9.0   33.244   36.132   39.355   39.741
 parallel_gemm_fm_cosma             787  8.6   38.310   38.720   38.310   38.720
 potential_pw2rs                    142 10.0    0.059    0.066   38.557   38.613
 mp_alltoall_d54                     71 10.0    3.614   31.135    3.614   31.135
 grid_collocate_task_list           142  7.0   26.002   30.421   26.002   30.421
 rpa_num_int_RPA_matrix_operati     125  7.0    0.002    0.008   28.592   28.634
 calc_mat_Q                         250  8.0    0.001    0.001   27.860   27.958
 contract_S_to_Q                    250  9.0    0.002    0.003   27.064   27.290
 transfer_rs2pw                     800  8.0    0.011    0.013   21.709   25.221
 pw_gather_p                       1432 11.5   21.367   22.882   21.367   22.882
 pw_to_cube                          40  5.0   17.500   17.952   18.875   19.864
 qs_scf_post_occ_cubes                2  4.0    0.948    1.453   19.861   19.862
 qs_scf_post_unocc_cubes              2  4.0    0.904    1.406   19.857   19.858
 pw_scatter_p                      1448 12.2   18.970   19.434   18.970   19.434
 transfer_pw2rs                     641 10.7    0.007    0.009   19.183   19.267
 calculate_wavefunction              40  5.0    0.065    0.114   18.990   19.235
 collocate_function                  40  6.0    0.029    0.120   18.925   19.187
 mp_waitany                       17446 11.2   14.733   18.365   14.733   18.365
 pw_derive                         1053 11.6   16.407   17.752   16.407   17.752
 transfer_rs2pw_500                 254  9.4    5.539    6.064   13.717   17.077
 xc_functional_eval                1400 10.5    0.004    0.005   13.075   16.470
 pw_axpy                           2405  8.8   14.850   15.781   14.850   15.781
 prepare_gapw_den                    71  8.0    0.001    0.001   15.612   15.780
 put_rho0_on_grid                    71  9.0    0.525    0.591   14.610   14.778
 compute_GW_self_energy             125  7.0    0.005    0.012   14.224   14.475
 compute_GW_self_energy_deep        250  8.0    1.177    1.216   12.499   12.720
 transfer_pw2rs_500                 215 11.3    5.485    5.998   11.747   12.175
 mp_sum_d                          2176  6.7    4.623   11.816    4.623   11.816
 fft_wrap_pw1pw2_170                324 10.2    0.558    0.766    9.157   10.959
 pw_copy_to_array                  1432 11.5    8.566   10.161    8.566   10.161
 pw_copy                           1764 10.7    9.138    9.878    9.138    9.878
 vwn_lsd_eval                       350 11.5    7.555    9.538    7.555    9.538
 mp_alltoall_d11v                  2967  9.6    7.269    7.947    7.269    7.947
 grid_integrate_task_list           142 10.0    0.799    6.615    0.799    6.615
 rs_gather_matrices                 142 10.0    0.006    0.027    5.830    6.312
 integrate_vhg0_rspace               71  8.0    0.168    0.204    5.811    5.827
 pw_copy_from_array                1448 12.2    4.697    5.605    4.697    5.605
 cp2k_distribution_to_z_slices       71  9.0    2.169    2.435    3.512    5.006
 pw_poisson_set                      72  8.9    0.002    0.002    4.844    4.957
 mp_waitall_1                     47902 12.0    3.233    4.957    3.233    4.957
 rs_grid_zero                       660 10.5    4.693    4.862    4.693    4.862
 transfer_rs2pw_170                 182  8.8    1.431    1.670    3.578    4.076
 pw_zero                            882  9.9    3.552    3.961    3.552    3.961
 transfer_pw2rs_170                 142 12.0    1.329    1.466    3.406    3.876
 transfer_rs2pw_60                  182  8.8    2.152    2.209    3.621    3.775
 mp_sync                           1223  9.7    2.621    3.761    2.621    3.761
 lyp_lsd_eval                       350 11.5    2.955    3.727    2.955    3.727
 transfer_pw2rs_60                  142 12.0    2.108    2.365    3.295    3.591
 compute_vec_Sigma_x_minus_vxc_       1  4.0    0.000    0.000    3.033    3.033
 qs_scf_new_mos                      70  5.0    0.003    0.003    2.948    2.958
 eigensolver_symm                   142  6.0    0.007    0.010    2.671    2.676
 mp_max_i                           616  2.9    0.693    2.585    0.693    2.585
 mp_sum_dm                        10085  7.4    1.388    2.572    1.388    2.572
 pw_scale                           698  8.6    2.205    2.390    2.205    2.390
 mp_alltoall_d45                     72 10.0    1.954    2.285    1.954    2.285
 fft_wrap_pw1pw2_60                 324 10.2    0.044    0.051    1.743    2.278
 cp_fm_diag_elpa                    144  6.9    0.000    0.000    2.174    2.188
 xb88_lsd_eval                      350 11.5    1.947    2.168    1.947    2.168
 mp_sendrecv_dv                   17108  9.8    1.935    2.110    1.935    2.110
 cp_fm_redistribute_end             144  7.9    1.057    2.067    1.065    2.070
 cp_fm_diag_elpa_base               144  7.9    0.970    1.948    0.991    1.992
 mp2_ri_gpw_compute_in                1  5.0    0.002    0.004    1.961    1.961
 mp2_ri_gpw_compute_in_loop           1  6.0    0.000    0.001    1.920    1.920
 init_scf_run                         1  3.0    0.002    0.003    1.812    1.812
 scf_env_initial_rho_setup            1  4.0    0.001    0.001    1.705    1.706
 pw_integral_ab_c1d_c1d_gs           71  9.0    1.032    1.085    1.260    1.570
 mp_file_write_all_chv               40  6.0    0.421    1.410    0.421    1.410
 mp2_eri_3c_integrate                 1  7.0    0.101    0.155    1.073    1.267
 calculate_vxc_atom                  71  8.0    0.081    0.266    1.204    1.234
 integrate_set_3c                472374  8.0    0.705    0.837    0.972    1.138
 xalpha_lsd_eval                    350 11.5    0.615    1.069    0.615    1.069
 pw_poisson_rebuild                  71  9.0    0.000    0.000    0.975    0.996
 ps_wavelet_create                    1 10.0    0.000    0.000    0.975    0.996
 RS_z_slice_distribution              1 11.0    0.915    0.951    0.975    0.996
 mp_file_set_view_chv                40  6.0    0.501    0.983    0.501    0.983
 cp_fm_cholesky_invert              125  8.0    0.930    0.954    0.930    0.954
 calc_fm_mat_S_rpa                  250  9.0    0.795    0.862    0.795    0.862
 mp_sum_dv                          530  8.5    0.504    0.850    0.504    0.850
 transfer_rs2pw_20                  182  8.8    0.316    0.350    0.781    0.842
 gaVxcgb_GC                         140  9.0    0.179    0.829    0.179    0.829
 calc_screening_functions             1 10.0    0.327    0.344    0.787    0.802
 transfer_pw2rs_20                  142 12.0    0.370    0.401    0.727    0.790
 powell_optimize                 833532 11.0    0.771    0.789    0.771    0.789
 contract_B_L                         4  7.0    0.014    0.017    0.587    0.776
 scale_and_distribute               142 10.0    0.603    0.750    0.603    0.750
 cp_fm_to_fm_submat_general         250 10.0    0.408    0.656    0.408    0.656
 compute_Erpa_by_freq_int           125  8.0    0.004    0.007    0.627    0.648
 cp_fm_cholesky_decompose           126  9.0    0.627    0.647    0.627    0.647
 qs_init_subsys                       1  2.0    0.068    0.069    0.629    0.629
 xc_pw_smooth                       140 10.0    0.000    0.000    0.522    0.572
 calculate_rho0_atom                213  9.0    0.551    0.559    0.551    0.559
 qs_env_setup                         1  3.0    0.001    0.001    0.547    0.547
 qs_env_rebuild_pw_env                2  3.5    0.000    0.000    0.543    0.543
 pw_env_rebuild                       1  5.0    0.010    0.010    0.543    0.543
 pw_grid_setup                        4  6.0    0.000    0.001    0.531    0.531
 pw_grid_setup_internal               4  7.0    0.008    0.009    0.530    0.530
 mp_bcast_l                          40  6.0    0.452    0.462    0.452    0.462
 pw_grid_sort                         4  8.0    0.313    0.319    0.451    0.459
 calc_pair_dist_radii                 1 10.0    0.139    0.141    0.450    0.457
 calculate_rho_atom                 213  9.0    0.191    0.448    0.191    0.448
 cp_fm_uplo_to_full                 269  8.3    0.269    0.418    0.269    0.418
 mp_cart_create                     641  9.9    0.230    0.412    0.230    0.413
 dbt_pgrid_create_expert             84 10.8    0.000    0.002    0.212    0.396
 dbcsr_multiply_generic             409  8.0    0.006    0.007    0.363    0.374
 fft_wrap_pw1pw2_20                 324 10.2    0.017    0.020    0.308    0.346
 dbt_total                            8  8.0    0.001    0.001    0.338    0.338
 abc_contract                    472374  9.0    0.266    0.315    0.266    0.315
 dbt_contract                         4  9.0    0.001    0.001    0.274    0.299
 mixing_init                          1  5.0    0.281    0.293    0.293    0.293
 calculate_rho_atom_coeff            71  6.0    0.081    0.093    0.289    0.289
 cp_fm_symm                         142  7.0    0.249    0.270    0.249    0.270
 write_available_results              1  4.0    0.003    0.003    0.255    0.256
 update_ks_atom                      71  8.0    0.070    0.085    0.232    0.247
 write_mo_free_results                1  5.0    0.022    0.025    0.220    0.221
 dbt_tas_multiply                     8 11.5    0.000    0.000    0.198    0.198
 dbt_tas_total                        8 12.5    0.001    0.001    0.197    0.197
 calculate_dm_sparse                140  6.0    0.000    0.001    0.192    0.195
 create_integ_mat                     2  6.0    0.001    0.002    0.194    0.194
 cp_dbcsr_plus_fm_fm_t              140  7.0    0.001    0.001    0.190    0.193
 integrate_four_center_load          71 10.0    0.000    0.001    0.165    0.183
 hfx_load_balance                     1 11.0    0.000    0.000    0.165    0.182
 integrate_four_center_getP          71 10.0    0.035    0.039    0.143    0.176
 multiply_cannon                    409  9.0    0.013    0.015    0.165    0.173
 copy_dbcsr_to_fm                   281  6.9    0.003    0.006    0.152    0.170
 make_m2s                           818  9.0    0.003    0.004    0.164    0.169
 mp_bcast_dm                       7952  9.0    0.162    0.165    0.162    0.165
 cp_fm_redistribute_start           144  7.9    0.072    0.090    0.118    0.147
 make_images                        818 10.0    0.032    0.035    0.139    0.143
 sort_shells                          4  9.0    0.139    0.141    0.139    0.141
 hirshfeld_integration                2  6.0    0.007    0.032    0.140    0.141
 dbcsr_complete_redistribute        565  8.5    0.028    0.030    0.117    0.141
 dbt_tas_dbm                          8 13.5    0.000    0.000    0.140    0.140
 multiply_cannon_loop               409 10.0    0.004    0.005    0.131    0.138
 Q_trace_and_add_unit_matrix        125  8.0    0.003    0.003    0.067    0.134
 rs_scatter_matrices                142  7.0    0.005    0.013    0.071    0.132
 array2fm                             4  7.0    0.000    0.000    0.124    0.130
 dbt_tas_mm_1N                        8 14.5    0.000    0.000    0.111    0.128
 dbm_multiply                         8 15.5    0.111    0.128    0.111    0.128
 dbt_copy                            12 10.0    0.000    0.000    0.097    0.126
 integrate_four_center_dist_KS       71 10.0    0.020    0.026    0.109    0.110
 multiply_cannon_multrec           2004 10.9    0.092    0.103    0.093    0.104
 offload_free_buffer                 79  8.4    0.085    0.095    0.085    0.095
 mp_alltoall_i22                    847  9.3    0.078    0.094    0.078    0.094
 vxc_of_r_new                       280  9.0    0.004    0.014    0.026    0.094
 dbt_reshape                          8 11.5    0.017    0.035    0.065    0.091
 dbcsr_desymmetrize_deep            282  7.9    0.005    0.006    0.076    0.090
 mp2_main_alloc_hfx                   1  4.0    0.068    0.082    0.068    0.082
 Vh_1c_gg_integrals                  71  8.0    0.015    0.060    0.070    0.080
 hfx_load_balance_count               1 12.0    0.069    0.075    0.069    0.075
 hfx_load_balance_bin                 1 12.0    0.069    0.074    0.069    0.074
 make_images_data                   818 11.0    0.004    0.004    0.064    0.071
 -------------------------------------------------------------------------------

 The number of warnings for this run is : 2
 
 -------------------------------------------------------------------------------
  **** **** ******  **  PROGRAM ENDED AT                 2026-02-18 12:49:42.390
 ***** ** ***  *** **   PROGRAM RAN ON                                    cn0955
 **    ****   ******    PROGRAM RAN BY                                  metdyn02
 ***** **    ** ** **   PROGRAM PROCESS ID                               3417270
  **** **  *******  **  PROGRAM STOPPED IN /scratch/hpc-prf-metdyn/metdyn02_Remi
                                           /05_Dyson_orbitals/cp2k/closed/single
                                           topen/B3LYP
