SIRIUS 7.7.0, git hash: https://api.github.com/repos/electronic-structure/SIRIUS/git/ref/tags/v7.7.0
 DBCSR| CPU Multiplication driver                                           BLAS (U)
 DBCSR| Multrec recursion limit                                              512 (U)
 DBCSR| Multiplication stack size                                           1000 (D)
 DBCSR| Maximum elements for images                                    UNLIMITED (U)
 DBCSR| Multiplicative factor virtual images                                   1 (U)
 DBCSR| Use multiplication densification                                       T (D)
 DBCSR| Multiplication size stacks                                             3 (U)
 DBCSR| Use memory pool for CPU allocation                                     F (U)
 DBCSR| Number of 3D layers                                               SINGLE (U)
 DBCSR| Use MPI memory allocation                                              F (U)
 DBCSR| Use RMA algorithm                                                      F (U)
 DBCSR| Use Communication thread                                               T (U)
 DBCSR| Communication thread load                                             75 (D)
 DBCSR| MPI: My process id                                                     0
 DBCSR| MPI: Number of processes                                              48
 DBCSR| OMP: Current number of threads                                         4
 DBCSR| OMP: Max number of threads                                             4
 DBCSR| Split modifier for TAS multiplication algorithm                  1.0E+00 (U)


  **** **** ******  **  PROGRAM STARTED AT               2026-02-18 12:34:49.699
 ***** ** ***  *** **   PROGRAM STARTED ON                                cn0915
 **    ****   ******    PROGRAM STARTED BY                              metdyn02
 ***** **    ** ** **   PROGRAM PROCESS ID                                667766
  **** **  *******  **  PROGRAM STARTED IN /scratch/hpc-prf-metdyn/metdyn02_Remi
                                           /05_Dyson_orbitals/cp2k/open/singleto
                                           pen/PBE

 CP2K| version string:                 CP2K version 2025.2 (Development Version)
 CP2K| source code revision number:                                  git:2a4e9c4
 CP2K| cp2kflags: omp libint fftw3 libxc libgrpp elpa parallel scalapack mpi_f08
 CP2K|             cosma xsmm plumed2 spglib sirius libvori libbqb libvdwxc hdf5
 CP2K| is freely available from                            https://www.cp2k.org/
 CP2K| Program compiled at                      Fri Oct 24 04:52:17 PM CEST 2025
 CP2K| Program compiled on                                                login1
 CP2K| Program compiled for                                                local
 CP2K| Data directory path    /opt/software/pc2/EB-SW/software/CP2K/2025.2-foss-
 CP2K| Input file name                                                    GW.inp

 GLOBAL| Force Environment number                                              1
 GLOBAL| Basis set file name            /scratch/hpc-prf-metdyn/metdyn02_Remi/05
 GLOBAL| Potential file name            /pc2/groups/hpc-prf-metdyn/metdyn02_Remi
 GLOBAL| MM Potential file name                                     MM_POTENTIAL
 GLOBAL| Coordinate file name                                      __STD_INPUT__
 GLOBAL| Method name                                                        CP2K
 GLOBAL| Project name                                                       Open
 GLOBAL| Run type                                                         ENERGY
 GLOBAL| FFT library                                                       FFTW3
 GLOBAL| Diagonalization library                                            ELPA
 GLOBAL| Cholesky decomposition library                                ScaLAPACK
 GLOBAL| DGEMM library                                                      BLAS
 GLOBAL| Minimum number of eigenvectors for ELPA usage                        16
 GLOBAL| Orthonormality check for eigenvectors                          DISABLED
 GLOBAL| Matrix multiplication library                                     COSMA
 GLOBAL| All-to-all communication in single precision                          F
 GLOBAL| FFTs using library dependent lengths                                  F
 GLOBAL| Grid backend                                                       AUTO
 GLOBAL| Global print level                                               MEDIUM
 GLOBAL| MPI I/O enabled                                                       T
 GLOBAL| Total number of message passing processes                            48
 GLOBAL| Number of distributed systems (nodes)                                 1
 GLOBAL| Number of threads for this process                                    4
 GLOBAL| This output is from process                                           0
 GLOBAL| OpenMP stack size per thread (OMP_STACKSIZE)                    default
 GLOBAL| CPU model name                          AMD EPYC 9655 96-Core Processor
 GLOBAL| CPUID                                                              1003

 MEMORY| system memory details [Kb]
 MEMORY|                        rank 0           min           max       average
 MEMORY| MemTotal            791039008     791039008     791039008     791039008
 MEMORY| MemFree             747202144     747201640     747202144     747202049
 MEMORY| Buffers                  3196          3196          3196          3196
 MEMORY| Cached               10092060      10092060      10092060      10092060
 MEMORY| Slab                  2701516       2701516       2701516       2701516
 MEMORY| SReclaimable           991760        991760        991760        991760
 MEMORY| MemLikelyFree       758289160     758288656     758289160     758289065


 *** Fundamental physical constants (SI units) ***

 *** Literature: B. J. Mohr and B. N. Taylor,
 ***             CODATA recommended values of the fundamental physical
 ***             constants: 2006, Web Version 5.1
 ***             http://physics.nist.gov/constants

 Speed of light in vacuum [m/s]                             2.99792458000000E+08
 Magnetic constant or permeability of vacuum [N/A**2]       1.25663706143592E-06
 Electric constant or permittivity of vacuum [F/m]          8.85418781762039E-12
 Planck constant (h) [J*s]                                  6.62606896000000E-34
 Planck constant (h-bar) [J*s]                              1.05457162825177E-34
 Elementary charge [C]                                      1.60217648700000E-19
 Electron mass [kg]                                         9.10938215000000E-31
 Electron g factor [ ]                                     -2.00231930436220E+00
 Proton mass [kg]                                           1.67262163700000E-27
 Fine-structure constant                                    7.29735253760000E-03
 Rydberg constant [1/m]                                     1.09737315685270E+07
 Avogadro constant [1/mol]                                  6.02214179000000E+23
 Boltzmann constant [J/K]                                   1.38065040000000E-23
 Atomic mass unit [kg]                                      1.66053878200000E-27
 Bohr radius [m]                                            5.29177208590000E-11

 *** Conversion factors ***

 [u] -> [a.u.]                                              1.82288848426455E+03
 [Angstrom] -> [Bohr] = [a.u.]                              1.88972613288564E+00
 [a.u.] = [Bohr] -> [Angstrom]                              5.29177208590000E-01
 [a.u.] -> [s]                                              2.41888432650478E-17
 [a.u.] -> [fs]                                             2.41888432650478E-02
 [a.u.] -> [J]                                              4.35974393937059E-18
 [a.u.] -> [N]                                              8.23872205491840E-08
 [a.u.] -> [K]                                              3.15774647902944E+05
 [a.u.] -> [kJ/mol]                                         2.62549961709828E+03
 [a.u.] -> [kcal/mol]                                       6.27509468713739E+02
 [a.u.] -> [Pa]                                             2.94210107994716E+13
 [a.u.] -> [bar]                                            2.94210107994716E+08
 [a.u.] -> [atm]                                            2.90362800883016E+08
 [a.u.] -> [eV]                                             2.72113838565563E+01
 [a.u.] -> [Hz]                                             6.57968392072181E+15
 [a.u.] -> [1/cm] (wave numbers)                            2.19474631370540E+05
 [a.u./Bohr**2] -> [1/cm]                                   5.14048714338585E+03
 

 CELL_TOP| Volume [angstrom^3]:                                     27000.000000
 CELL_TOP| Vector a [angstrom    30.000     0.000     0.000   |a| =    30.000000
 CELL_TOP| Vector b [angstrom     0.000    30.000     0.000   |b| =    30.000000
 CELL_TOP| Vector c [angstrom     0.000     0.000    30.000   |c| =    30.000000
 CELL_TOP| Angle (b,c), alpha [degree]:                                90.000000
 CELL_TOP| Angle (a,c), beta  [degree]:                                90.000000
 CELL_TOP| Angle (a,b), gamma [degree]:                                90.000000
 CELL_TOP| Numerically orthorhombic:                                         YES
 CELL_TOP| Periodicity                                                      NONE

 GENERATE|  Preliminary Number of Bonds generated:                             0
 GENERATE|  Achieved consistency in connectivity generation.

 CELL| Volume [angstrom^3]:                                         27000.000000
 CELL| Vector a [angstrom]:      30.000     0.000     0.000   |a| =    30.000000
 CELL| Vector b [angstrom]:       0.000    30.000     0.000   |b| =    30.000000
 CELL| Vector c [angstrom]:       0.000     0.000    30.000   |c| =    30.000000
 CELL| Angle (b,c), alpha [degree]:                                    90.000000
 CELL| Angle (a,c), beta  [degree]:                                    90.000000
 CELL| Angle (a,b), gamma [degree]:                                    90.000000
 CELL| Numerically orthorhombic:                                             YES
 CELL| Periodicity                                                          NONE

 CELL_REF| Volume [angstrom^3]:                                     27000.000000
 CELL_REF| Vector a [angstrom    30.000     0.000     0.000   |a| =    30.000000
 CELL_REF| Vector b [angstrom     0.000    30.000     0.000   |b| =    30.000000
 CELL_REF| Vector c [angstrom     0.000     0.000    30.000   |c| =    30.000000
 CELL_REF| Angle (b,c), alpha [degree]:                                90.000000
 CELL_REF| Angle (a,c), beta  [degree]:                                90.000000
 CELL_REF| Angle (a,b), gamma [degree]:                                90.000000
 CELL_REF| Numerically orthorhombic:                                         YES
 CELL_REF| Periodicity                                                      NONE

 *******************************************************************************
 *******************************************************************************
 **                                                                           **
 **     #####                         ##              ##                      **
 **    ##   ##            ##          ##              ##                      **
 **   ##     ##                       ##            ######                    **
 **   ##     ##  ##   ##  ##   #####  ##  ##   ####   ##    #####    #####    **
 **   ##     ##  ##   ##  ##  ##      ## ##   ##      ##   ##   ##  ##   ##   **
 **   ##  ## ##  ##   ##  ##  ##      ####     ###    ##   ######   ######    **
 **    ##  ###   ##   ##  ##  ##      ## ##      ##   ##   ##       ##        **
 **     #######   #####   ##   #####  ##  ##  ####    ##    #####   ##        **
 **           ##                                                    ##        **
 **                                                                           **
 **                                                ... make the atoms dance   **
 **                                                                           **
 **            Copyright (C) by CP2K developers group (2000-2025)             **
 **                      J. Chem. Phys. 152, 194103 (2020)                    **
 **                                                                           **
 *******************************************************************************

 DFT| Spin unrestricted (spin-polarized) Kohn-Sham calculation               UKS
 DFT| Multiplicity                                                             1
 DFT| Number of spin states                                                    2
 DFT| Charge                                                                   0
 DFT| Self-interaction correction (SIC)                                       NO
 DFT| Cutoffs: density                                              1.000000E-10
 DFT|          gradient                                             1.000000E-10
 DFT|          tau                                                  1.000000E-10
 DFT|          cutoff_smoothing_range                               0.000000E+00
 DFT| XC density smoothing                                                  NONE
 DFT| XC derivatives                                                          PW

 FUNCTIONAL| PBE:
 FUNCTIONAL| J.P.Perdew, K.Burke, M.Ernzerhof, Phys. Rev. Letter, vol. 77, n 18,
 FUNCTIONAL|  pp. 3865-3868, (1996) {spin polarized}                            


 QS| Method:                                                                GAPW
 QS| Density plane wave grid type                        NON-SPHERICAL FULLSPACE
 QS| Number of grid levels:                                                    4
 QS| Density cutoff [a.u.]:                                                500.0
 QS| Multi grid cutoff [a.u.]: 1) grid level                               500.0
 QS|                           2) grid level                               166.7
 QS|                           3) grid level                                55.6
 QS|                           4) grid level                                18.5
 QS| Grid level progression factor:                                          3.0
 QS| Relative density cutoff [a.u.]:                                        50.0
 QS| Interaction thresholds: eps_pgf_orb:                                1.0E-12
 QS|                         eps_filter_matrix:                          0.0E+00
 QS|                         eps_core_charge:                            1.0E-14
 QS|                         eps_rho_gspace:                             1.0E-12
 QS|                         eps_rho_rspace:                             1.0E-12
 QS|                         eps_gvg_rspace:                             1.0E-06
 QS|                         eps_ppl:                                    1.0E-02
 QS|                         eps_ppnl:                                   1.0E-08
 QS| GAPW|      One center basis from orbital basis primitives
 QS| GAPW|                   eps_fit:                                    1.0E-04
 QS| GAPW|                   eps_iso:                                    1.0E-12
 QS| GAPW|                   eps_svd:                                    1.0E-08
 QS| GAPW|                   eps_cpc:                                    1.0E-12
 QS| GAPW|   atom-r-grid: quadrature:                                     GC_LOG
 QS| GAPW|      atom-s-grid:  max l :                                          6
 QS| GAPW|      max_l_rho0 :                                                   2


 ATOMIC KIND INFORMATION

  1. Atomic kind: C                                     Number of atoms:      18

     Orbital Basis Set                                                 def2-TZVP

       Number of orbital shell sets:                                          11
       Number of orbital shells:                                              11
       Number of primitive Cartesian functions:                               20
       Number of Cartesian basis functions:                                   36
       Number of spherical basis functions:                                   31
       Norm type:                                                              2

       Normalised Cartesian orbitals:

                        Set   Shell   Orbital            Exponent    Coefficient

                          1       1    1s                0.095164       0.122114

                          2       1    1px               0.100568       0.080727
                          2       1    1py               0.100568       0.080727
                          2       1    1pz               0.100568       0.080727

                          3       1    1s                0.229728       0.236494

                          4       1    1px               0.288875       0.301876
                          4       1    1py               0.288875       0.301876
                          4       1    1pz               0.288875       0.301876

                          5       1    1dx2              0.318000       0.221644
                          5       1    1dxy              0.318000       0.383899
                          5       1    1dxz              0.318000       0.383899
                          5       1    1dy2              0.318000       0.221644
                          5       1    1dyz              0.318000       0.383899
                          5       1    1dz2              0.318000       0.221644

                          6       1    1s                0.576963       0.471815

                          7       1    1fx3              0.761000       0.796288
                          7       1    1fx2y             0.761000       1.780553
                          7       1    1fx2z             0.761000       1.780553
                          7       1    1fxy2             0.761000       1.780553
                          7       1    1fxyz             0.761000       3.084008
                          7       1    1fxz2             0.761000       1.780553
                          7       1    1fy3              0.761000       0.796288
                          7       1    1fy2z             0.761000       1.780553
                          7       1    1fyz2             0.761000       1.780553
                          7       1    1fz3              0.761000       0.796288

                          8       1    1px              34.697232       1.359665
                                                         7.958262       1.451259
                                                         2.378083       1.270923
                                                         0.814332       0.802572
                          8       1    1py              34.697232       1.359665
                                                         7.958262       1.451259
                                                         2.378083       1.270923
                                                         0.814332       0.802572
                          8       1    1pz              34.697232       1.359665
                                                         7.958262       1.451259
                                                         2.378083       1.270923
                                                         0.814332       0.802572

                          9       1    1dx2              1.097000       1.935401
                          9       1    1dxy              1.097000       3.352214
                          9       1    1dxz              1.097000       3.352214
                          9       1    1dy2              1.097000       1.935401
                          9       1    1dyz              1.097000       3.352214
                          9       1    1dz2              1.097000       1.935401

                         10       1    1s                6.206714       1.838354
                                                         2.576490       0.544758

                         11       1    1s            13575.349682       0.543591
                                                      2035.233368       1.014554
                                                       463.225624       1.731573
                                                       131.200196       2.691038
                                                        42.853016       3.604455
                                                        15.584186       3.702556

     RI Auxiliary Basis Set                                      def2-TZVP-RIFIT

       Number of orbital shell sets:                                          22
       Number of orbital shells:                                              22
       Number of primitive Cartesian functions:                               22
       Number of Cartesian basis functions:                                   86
       Number of spherical basis functions:                                   72
       Norm type:                                                              2

       Normalised Cartesian orbitals:

                        Set   Shell   Orbital            Exponent    Coefficient

                          1       1    1s                0.206828       0.218583

                          2       1    1px               0.237606       0.236462
                          2       1    1py               0.237606       0.236462
                          2       1    1pz               0.237606       0.236462

                          3       1    1dx2              0.257531       0.153236
                          3       1    1dxy              0.257531       0.265412
                          3       1    1dxz              0.257531       0.265412
                          3       1    1dy2              0.257531       0.153236
                          3       1    1dyz              0.257531       0.265412
                          3       1    1dz2              0.257531       0.153236

                          4       1    1s                0.405917       0.362442

                          5       1    1px               0.491713       0.586921
                          5       1    1py               0.491713       0.586921
                          5       1    1pz               0.491713       0.586921

                          6       1    1fx3              0.552898       0.388066
                          6       1    1fx2y             0.552898       0.867743
                          6       1    1fx2z             0.552898       0.867743
                          6       1    1fxy2             0.552898       0.867743
                          6       1    1fxyz             0.552898       1.502975
                          6       1    1fxz2             0.552898       0.867743
                          6       1    1fy3              0.552898       0.388066
                          6       1    1fy2z             0.552898       0.867743
                          6       1    1fyz2             0.552898       0.867743
                          6       1    1fz3              0.552898       0.388066

                          7       1    1dx2              0.587935       0.649734
                          7       1    1dxy              0.587935       1.125372
                          7       1    1dxz              0.587935       1.125372
                          7       1    1dy2              0.587935       0.649734
                          7       1    1dyz              0.587935       1.125372
                          7       1    1dz2              0.587935       0.649734

                          8       1    1s                1.074386       0.752108

                          9       1    1px               1.131808       1.664010
                          9       1    1py               1.131808       1.664010
                          9       1    1pz               1.131808       1.664010

                         10       1    1fx3              1.160680       2.058531
                         10       1    1fx2y             1.160680       4.603016
                         10       1    1fx2z             1.160680       4.603016
                         10       1    1fxy2             1.160680       4.603016
                         10       1    1fxyz             1.160680       7.972658
                         10       1    1fxz2             1.160680       4.603016
                         10       1    1fy3              1.160680       2.058531
                         10       1    1fy2z             1.160680       4.603016
                         10       1    1fyz2             1.160680       4.603016
                         10       1    1fz3              1.160680       2.058531

                         11       1    1dx2              1.415016       3.021634
                         11       1    1dxy              1.415016       5.233624
                         11       1    1dxz              1.415016       5.233624
                         11       1    1dy2              1.415016       3.021634
                         11       1    1dyz              1.415016       5.233624
                         11       1    1dz2              1.415016       3.021634

                         12       1    1fx3              2.387017      10.426283
                         12       1    1fx2y             2.387017      23.313877
                         12       1    1fx2z             2.387017      23.313877
                         12       1    1fxy2             2.387017      23.313877
                         12       1    1fxyz             2.387017      40.380819
                         12       1    1fxz2             2.387017      23.313877
                         12       1    1fy3              2.387017      10.426283
                         12       1    1fy2z             2.387017      23.313877
                         12       1    1fyz2             2.387017      23.313877
                         12       1    1fz3              2.387017      10.426283

                         13       1    1px               2.736198       5.016197
                         13       1    1py               2.736198       5.016197
                         13       1    1pz               2.736198       5.016197

                         14       1    1s                3.311579       1.749591

                         15       1    1dx2              3.411677      14.096240
                         15       1    1dxy              3.411677      24.415403
                         15       1    1dxz              3.411677      24.415403
                         15       1    1dy2              3.411677      14.096240
                         15       1    1dyz              3.411677      24.415403
                         15       1    1dz2              3.411677      14.096240

                         16       1    1px               6.379087      14.450678
                         16       1    1py               6.379087      14.450678
                         16       1    1pz               6.379087      14.450678

                         17       1    1dx2              9.067688      77.988119
                         17       1    1dxy              9.067688     135.079385
                         17       1    1dxz              9.067688     135.079385
                         17       1    1dy2              9.067688      77.988119
                         17       1    1dyz              9.067688     135.079385
                         17       1    1dz2              9.067688      77.988119

                         18       1    1s                9.433654       3.836366

                         19       1    1s               23.282845       7.554176

                         20       1    1px              24.794323      78.864291
                         20       1    1py              24.794323      78.864291
                         20       1    1pz              24.794323      78.864291

                         21       1    1s               59.862607      15.338285

                         22       1    1s              281.476933      48.977002

       Atomic covalent radius [Angstrom]:                                  0.770

       Atomic van der Waals radius [Angstrom]:                             1.700

     The atoms of this atomic kind are PAW atoms (GAPW):
       Hard Gaussian function radius:                                      1.512
       Rho0 radius:                                                        1.512
       Maximum GTO radius used for PAW projector construction:            24.566

     GAPW Soft Basis Set                                          def2-TZVP_soft

       Number of orbital shell sets:                                          11
       Number of orbital shells:                                              11
       Number of primitive Cartesian functions:                               11
       Number of Cartesian basis functions:                                   36
       Number of spherical basis functions:                                   31
       Norm type:                                                              2

       Normalised Cartesian orbitals:

                        Set   Shell   Orbital            Exponent    Coefficient

                          1       1    1s                0.095164       0.122114

                          2       1    1px               0.100568       0.080727
                          2       1    1py               0.100568       0.080727
                          2       1    1pz               0.100568       0.080727

                          3       1    1s                0.229728       0.236494

                          4       1    1px               0.288875       0.301876
                          4       1    1py               0.288875       0.301876
                          4       1    1pz               0.288875       0.301876

                          5       1    1dx2              0.318000       0.221644
                          5       1    1dxy              0.318000       0.383899
                          5       1    1dxz              0.318000       0.383899
                          5       1    1dy2              0.318000       0.221644
                          5       1    1dyz              0.318000       0.383899
                          5       1    1dz2              0.318000       0.221644

                          6       1    1s                0.576963       0.471815

                          7       1    1fx3              0.761000       0.796288
                          7       1    1fx2y             0.761000       1.780553
                          7       1    1fx2z             0.761000       1.780553
                          7       1    1fxy2             0.761000       1.780553
                          7       1    1fxyz             0.761000       3.084008
                          7       1    1fxz2             0.761000       1.780553
                          7       1    1fy3              0.761000       0.796288
                          7       1    1fy2z             0.761000       1.780553
                          7       1    1fyz2             0.761000       1.780553
                          7       1    1fz3              0.761000       0.796288

                          8       1    1px               2.378083       1.270923
                                                         0.814332       0.802572
                          8       1    1py               2.378083       1.270923
                                                         0.814332       0.802572
                          8       1    1pz               2.378083       1.270923
                                                         0.814332       0.802572

                          9       1    1dx2              1.097000       1.935401
                          9       1    1dxy              1.097000       3.352214
                          9       1    1dxz              1.097000       3.352214
                          9       1    1dy2              1.097000       1.935401
                          9       1    1dyz              1.097000       3.352214
                          9       1    1dz2              1.097000       1.935401

                         10       1    1s                2.576490       0.544758

                         11       1    1s         

     AE Potential information for                                            ALL

       Description:                                       All-electron potential
                                          Krack, Parrinello, PCCP 2, 2105 (2000)

       Gaussian exponent of the core charge distribution:               4.109048
       Electronic configuration (s p d ...):                           4   2   0

  2. Atomic kind: N                                     Number of atoms:       2

     Orbital Basis Set                                                 def2-TZVP

       Number of orbital shell sets:                                          11
       Number of orbital shells:                                              11
       Number of primitive Cartesian functions:                               20
       Number of Cartesian basis functions:                                   36
       Number of spherical basis functions:                                   31
       Norm type:                                                              2

       Normalised Cartesian orbitals:

                        Set   Shell   Orbital            Exponent    Coefficient

                          1       1    1s                0.136477       0.160031

                          2       1    1px               0.142608       0.124917
                          2       1    1py               0.142608       0.124917
                          2       1    1pz               0.142608       0.124917

                          3       1    1s                0.336471       0.314863

                          4       1    1px               0.416422       0.476823
                          4       1    1py               0.416422       0.476823
                          4       1    1pz               0.416422       0.476823

                          5       1    1dx2              0.469000       0.437484
                          5       1    1dxy              0.469000       0.757744
                          5       1    1dxz              0.469000       0.757744
                          5       1    1dy2              0.469000       0.437484
                          5       1    1dyz              0.469000       0.757744
                          5       1    1dz2              0.469000       0.437484

                          6       1    1s                0.846601       0.629027

                          7       1    1fx3              1.093000       1.798249
                          7       1    1fx2y             1.093000       4.021007
                          7       1    1fx2z             1.093000       4.021007
                          7       1    1fxy2             1.093000       4.021007
                          7       1    1fxyz             1.093000       6.964588
                          7       1    1fxz2             1.093000       4.021007
                          7       1    1fy3              1.093000       1.798249
                          7       1    1fy2z             1.093000       4.021007
                          7       1    1fyz2             1.093000       4.021007
                          7       1    1fz3              1.093000       1.798249

                          8       1    1px              49.200381       2.126481
                                                        11.346791       2.327937
                                                         3.427397       2.048573
                                                         1.178553       1.260732
                          8       1    1py              49.200381       2.126481
                                                        11.346791       2.327937
                                                         3.427397       2.048573
                                                         1.178553       1.260732
                          8       1    1pz              49.200381       2.126481
                                                        11.346791       2.327937
                                                         3.427397       2.048573
                                                         1.178553       1.260732

                          9       1    1dx2              1.654000       3.970513
                          9       1    1dxy              1.654000       6.877130
                          9       1    1dxz              1.654000       6.877130
                          9       1    1dy2              1.654000       3.970513
                          9       1    1dyz              1.654000       6.877130
                          9       1    1dz2              1.654000       3.970513

                         10       1    1s                8.979148       2.388068
                                                         3.686300       0.733788

                         11       1    1s            19730.800647       0.695604
                                                      2957.895874       1.298610
                                                       673.221336       2.219088
                                                       190.682495       3.463661
                                                        62.295442       4.696756
                                                        22.654161       4.952251

     RI Auxiliary Basis Set                                      def2-TZVP-RIFIT

       Number of orbital shell sets:                                          22
       Number of orbital shells:                                              22
       Number of primitive Cartesian functions:                               22
       Number of Cartesian basis functions:                                   86
       Number of spherical basis functions:                                   72
       Norm type:                                                              2

       Normalised Cartesian orbitals:

                        Set   Shell   Orbital            Exponent    Coefficient

                          1       1    1s                0.269072       0.266264

                          2       1    1px               0.335825       0.364403
                          2       1    1py               0.335825       0.364403
                          2       1    1pz               0.335825       0.364403

                          3       1    1dx2              0.350685       0.263035
                          3       1    1dxy              0.350685       0.455591
                          3       1    1dxz              0.350685       0.455591
                          3       1    1dy2              0.350685       0.263035
                          3       1    1dyz              0.350685       0.455591
                          3       1    1dz2              0.350685       0.263035

                          4       1    1s                0.637091       0.508231

                          5       1    1px               0.697694       0.908911
                          5       1    1py               0.697694       0.908911
                          5       1    1pz               0.697694       0.908911

                          6       1    1fx3              0.809476       0.914984
                          6       1    1fx2y             0.809476       2.045966
                          6       1    1fx2z             0.809476       2.045966
                          6       1    1fxy2             0.809476       2.045966
                          6       1    1fxyz             0.809476       3.543717
                          6       1    1fxz2             0.809476       2.045966
                          6       1    1fy3              0.809476       0.914984
                          6       1    1fy2z             0.809476       2.045966
                          6       1    1fyz2             0.809476       2.045966
                          6       1    1fz3              0.809476       0.914984

                          7       1    1dx2              0.859020       1.261582
                          7       1    1dxy              0.859020       2.185125
                          7       1    1dxz              0.859020       2.185125
                          7       1    1dy2              0.859020       1.261582
                          7       1    1dyz              0.859020       2.185125
                          7       1    1dz2              0.859020       1.261582

                          8       1    1s                1.372845       0.903912

                          9       1    1fx3              1.668650       4.658826
                          9       1    1fx2y             1.668650      10.417452
                          9       1    1fx2z             1.668650      10.417452
                          9       1    1fxy2             1.668650      10.417452
                          9       1    1fxyz             1.668650      18.043557
                          9       1    1fxz2             1.668650      10.417452
                          9       1    1fy3              1.668650       4.658826
                          9       1    1fy2z             1.668650      10.417452
                          9       1    1fyz2             1.668650      10.417452
                          9       1    1fz3              1.668650       4.658826

                         10       1    1px               1.675690       2.717580
                         10       1    1py               1.675690       2.717580
                         10       1    1pz               1.675690       2.717580

                         11       1    1dx2              2.091250       5.985769
                         11       1    1dxy              2.091250      10.367656
                         11       1    1dxz              2.091250      10.367656
                         11       1    1dy2              2.091250       5.985769
                         11       1    1dyz              2.091250      10.367656
                         11       1    1dz2              2.091250       5.985769

                         12       1    1fx3              3.468654      24.172222
                         12       1    1fx2y             3.468654      54.050731
                         12       1    1fx2z             3.468654      54.050731
                         12       1    1fxy2             3.468654      54.050731
                         12       1    1fxyz             3.468654      93.618612
                         12       1    1fxz2             3.468654      54.050731
                         12       1    1fy3              3.468654      24.172222
                         12       1    1fy2z             3.468654      54.050731
                         12       1    1fyz2             3.468654      54.050731
                         12       1    1fz3              3.468654      24.172222

                         13       1    1s                3.606548       1.865215

                         14       1    1px               3.969584       7.986774
                         14       1    1py               3.969584       7.986774
                         14       1    1pz               3.969584       7.986774

                         15       1    1dx2              5.029166      27.798888
                         15       1    1dxy              5.029166      48.149086
                         15       1    1dxz              5.029166      48.149086
                         15       1    1dy2              5.029166      27.798888
                         15       1    1dyz              5.029166      48.149086
                         15       1    1dz2              5.029166      27.798888

                         16       1    1px               8.669271      21.204025
                         16       1    1py               8.669271      21.204025
                         16       1    1pz               8.669271      21.204025

                         17       1    1s                9.067115       3.724020

                         18       1    1dx2             12.727173     141.153089
                         18       1    1dxy             12.727173     244.484323
                         18       1    1dxz             12.727173     244.484323
                         18       1    1dy2             12.727173     141.153089
                         18       1    1dyz             12.727173     244.484323
                         18       1    1dz2             12.727173     141.153089

                         19       1    1s               21.981132       7.235152

                         20       1    1px              34.121692     117.551530
                         20       1    1py              34.121692     117.551530
                         20       1    1pz              34.121692     117.551530

                         21       1    1s               62.030532      15.753034

                         22       1    1s              291.183943      50.238384

       Atomic covalent radius [Angstrom]:                                  0.750

       Atomic van der Waals radius [Angstrom]:                             1.550

     The atoms of this atomic kind are PAW atoms (GAPW):
       Hard Gaussian function radius:                                      1.512
       Rho0 radius:                                                        1.512
       Maximum GTO radius used for PAW projector construction:            24.566

     GAPW Soft Basis Set                                          def2-TZVP_soft

       Number of orbital shell sets:                                          11
       Number of orbital shells:                                              11
       Number of primitive Cartesian functions:                               11
       Number of Cartesian basis functions:                                   36
       Number of spherical basis functions:                                   31
       Norm type:                                                              2

       Normalised Cartesian orbitals:

                        Set   Shell   Orbital            Exponent    Coefficient

                          1       1    1s                0.136477       0.160031

                          2       1    1px               0.142608       0.124917
                          2       1    1py               0.142608       0.124917
                          2       1    1pz               0.142608       0.124917

                          3       1    1s                0.336471       0.314863

                          4       1    1px               0.416422       0.476823
                          4       1    1py               0.416422       0.476823
                          4       1    1pz               0.416422       0.476823

                          5       1    1dx2              0.469000       0.437484
                          5       1    1dxy              0.469000       0.757744
                          5       1    1dxz              0.469000       0.757744
                          5       1    1dy2              0.469000       0.437484
                          5       1    1dyz              0.469000       0.757744
                          5       1    1dz2              0.469000       0.437484

                          6       1    1s                0.846601       0.629027

                          7       1    1fx3              1.093000       1.798249
                          7       1    1fx2y             1.093000       4.021007
                          7       1    1fx2z             1.093000       4.021007
                          7       1    1fxy2             1.093000       4.021007
                          7       1    1fxyz             1.093000       6.964588
                          7       1    1fxz2             1.093000       4.021007
                          7       1    1fy3              1.093000       1.798249
                          7       1    1fy2z             1.093000       4.021007
                          7       1    1fyz2             1.093000       4.021007
                          7       1    1fz3              1.093000       1.798249

                          8       1    1px               3.427397       2.048573
                                                         1.178553       1.260732
                          8       1    1py               3.427397       2.048573
                                                         1.178553       1.260732
                          8       1    1pz               3.427397       2.048573
                                                         1.178553       1.260732

                          9       1    1dx2              1.654000       3.970513
                          9       1    1dxy              1.654000       6.877130
                          9       1    1dxz              1.654000       6.877130
                          9       1    1dy2              1.654000       3.970513
                          9       1    1dyz              1.654000       6.877130
                          9       1    1dz2              1.654000       3.970513

                         10       1    1s                3.686300       0.733788

                         11       1    1s         

     AE Potential information for                                            ALL

       Description:                                       All-electron potential
                                          Krack, Parrinello, PCCP 2, 2105 (2000)

       Gaussian exponent of the core charge distribution:               5.979100
       Electronic configuration (s p d ...):                           4   3   0

  3. Atomic kind: H                                     Number of atoms:       8

     Orbital Basis Set                                                 def2-TZVP

       Number of orbital shell sets:                                           4
       Number of orbital shells:                                               4
       Number of primitive Cartesian functions:                                6
       Number of Cartesian basis functions:                                    6
       Number of spherical basis functions:                                    6
       Norm type:                                                              2

       Normalised Cartesian orbitals:

                        Set   Shell   Orbital            Exponent    Coefficient

                          1       1    1s                0.103072       0.129648

                          2       1    1s                0.327230       0.308355

                          3       1    1px               0.800000       1.078456
                          3       1    1py               0.800000       1.078456
                          3       1    1pz               0.800000       1.078456

                          4       1    1s               34.061341       0.255630
                                                         5.123575       0.461360
                                                         1.164663       0.681121

     RI Auxiliary Basis Set                                      def2-TZVP-RIFIT

       Number of orbital shell sets:                                           7
       Number of orbital shells:                                               7
       Number of primitive Cartesian functions:                                7
       Number of Cartesian basis functions:                                   13
       Number of spherical basis functions:                                   13
       Norm type:                                                              2

       Normalised Cartesian orbitals:

                        Set   Shell   Orbital            Exponent    Coefficient

                          1       1    1s                0.264481       0.262849

                          2       1    1s                0.595125       0.482910

                          3       1    1px               0.595224       0.745230
                          3       1    1py               0.595224       0.745230
                          3       1    1pz               0.595224       0.745230

                          4       1    1px               1.354038       2.081991
                          4       1    1py               1.354038       2.081991
                          4       1    1pz               1.354038       2.081991

                          5       1    1s                1.861107       1.135635

                          6       1    1px               2.452498       4.374727
                          6       1    1py               2.452498       4.374727
                          6       1    1pz               2.452498       4.374727

                          7       1    1s                9.335216       3.806303

       Atomic covalent radius [Angstrom]:                                  0.320

       Atomic van der Waals radius [Angstrom]:                             1.090

     The atoms of this atomic kind are PAW atoms (GAPW):
       Hard Gaussian function radius:                                      1.200
       Rho0 radius:                                                        1.200
       Maximum GTO radius used for PAW projector construction:            24.566

     GAPW Soft Basis Set                                          def2-TZVP_soft

       Number of orbital shell sets:                                           4
       Number of orbital shells:                                               4
       Number of primitive Cartesian functions:                                5
       Number of Cartesian basis functions:                                    6
       Number of spherical basis functions:                                    6
       Norm type:                                                              2

       Normalised Cartesian orbitals:

                        Set   Shell   Orbital            Exponent    Coefficient

                          1       1    1s                0.103072       0.129648

                          2       1    1s                0.327230       0.308355

                          3       1    1px               0.800000       1.078456
                          3       1    1py               0.800000       1.078456
                          3       1    1pz               0.800000       1.078456

                          4       1    1s                5.123575       0.461360
                                                         1.164663       0.681121

     AE Potential information for                                            ALL

       Description:                                       All-electron potential
                                          Krack, Parrinello, PCCP 2, 2105 (2000)

       Gaussian exponent of the core charge distribution:              12.500000
       Electronic configuration (s p d ...):                           1   0   0


 MOLECULE KIND INFORMATION


 All atoms are their own molecule, skipping detailed information


 TOTAL NUMBERS AND MAXIMUM NUMBERS

  Total number of            - Atomic kinds:                                   3
                             - Atoms:                                         28
                             - Shell sets:                                   252
                             - Shells:                                       252
                             - Primitive Cartesian functions:                448
                             - Cartesian basis functions:                    768
                             - Spherical basis functions:                    668

  Maximum angular momentum of the orbital basis functions:                     3


 MODULE QUICKSTEP: ATOMIC COORDINATES IN ANGSTROM

   Atom Kind Element         X             Y             Z       Z(eff)     Mass
      1    1 C     6     12.248669     18.202622     15.000019   6.0000  12.0107
      2    1 C     6     13.184750     19.187038     15.000015   6.0000  12.0107
      3    1 C     6     14.572726     19.012772     15.000007   6.0000  12.0107
      4    1 C     6     12.662966     16.839534     15.000011   6.0000  12.0107
      5    1 C     6     14.008852     16.571648     15.000007   6.0000  12.0107
      6    1 C     6     14.942277     17.639189     15.000005   6.0000  12.0107
      7    1 C     6     15.685891     19.859940     14.999999   6.0000  12.0107
      8    1 C     6     16.989543     19.478101     14.999986   6.0000  12.0107
      9    1 C     6     16.285343     17.184102     14.999996   6.0000  12.0107
     10    1 C     6     17.315127     18.091144     14.999986   6.0000  12.0107
     11    1 C     6     14.808268     15.339038     14.999994   6.0000  12.0107
     12    1 C     6     16.212311     15.716776     15.000005   6.0000  12.0107
     13    2 N     7     14.409135     14.101114     14.999989   7.0000  14.0067
     14    2 N     7     17.178698     14.846221     15.000007   7.0000  14.0067
     15    1 C     6     15.406123     13.162409     14.999993   6.0000  12.0107
     16    1 C     6     16.787289     13.533987     15.000003   6.0000  12.0107
     17    1 C     6     15.062895     11.795726     14.999988   6.0000  12.0107
     18    1 C     6     16.043458     10.833875     14.999994   6.0000  12.0107
     19    1 C     6     17.404355     11.199998     15.000004   6.0000  12.0107
     20    1 C     6     17.769931     12.524013     15.000008   6.0000  12.0107
     21    3 H     1     14.011817     11.538646     14.999983   1.0000   1.0079
     22    3 H     1     15.772314      9.785994     14.999993   1.0000   1.0079
     23    3 H     1     18.164669     10.429616     15.000006   1.0000   1.0079
     24    3 H     1     18.808110     12.829033     15.000016   1.0000   1.0079
     25    3 H     1     17.784370     20.214006     14.999979   1.0000   1.0079
     26    3 H     1     18.349289     17.772143     14.999980   1.0000   1.0079
     27    3 H     1     11.928489     16.044680     15.000007   1.0000   1.0079
     28    3 H     1     11.191890     18.440374     15.000021   1.0000   1.0079



 SCF PARAMETERS         Density guess:                                    ATOMIC
                        --------------------------------------------------------
                        max_scf:                                             500
                        max_scf_history:                                       0
                        max_diis:                                              4
                        --------------------------------------------------------
                        eps_scf:                                        1.00E-06
                        eps_scf_history:                                0.00E+00
                        eps_diis:                                       1.00E-01
                        eps_eigval:                                     1.00E-05
                        --------------------------------------------------------
                        level_shift [a.u.]:                             0.000000
                        added MOs                                       603  603
                        --------------------------------------------------------
                        Mixing method:                            BROYDEN_MIXING
                                                charge density mixing in g-space
                        --------------------------------------------------------
                        No outer SCF

 PW_GRID| Information for grid number                                          1
 PW_GRID| Grid distributed over                                    48 processors
 PW_GRID| Real space group dimensions                                    48    1
 PW_GRID| the grid is blocked:                                                NO
 PW_GRID| Cutoff [a.u.]                                                    500.0
 PW_GRID| spherical cutoff:                                                   NO
 PW_GRID|   Bounds   1           -288     287                Points:         576
 PW_GRID|   Bounds   2           -288     287                Points:         576
 PW_GRID|   Bounds   3           -288     287                Points:         576
 PW_GRID| Volume element (a.u.^3)  0.9534E-03     Volume (a.u.^3)    182205.0337
 PW_GRID| Grid span                                                    FULLSPACE
 PW_GRID|   Distribution                         Average         Max         Min
 PW_GRID|   G-Vectors                          3981312.0     3981312     3981312
 PW_GRID|   G-Rays                                6912.0        6912        6912
 PW_GRID|   Real Space Points                  3981312.0     3981312     3981312

 PW_GRID| Information for grid number                                          2
 PW_GRID| Number of the reference grid                                         1
 PW_GRID| Grid distributed over                                    48 processors
 PW_GRID| Real space group dimensions                                    48    1
 PW_GRID| the grid is blocked:                                                NO
 PW_GRID| Cutoff [a.u.]                                                    166.7
 PW_GRID| spherical cutoff:                                                   NO
 PW_GRID|   Bounds   1           -180     179                Points:         360
 PW_GRID|   Bounds   2           -180     179                Points:         360
 PW_GRID|   Bounds   3           -180     179                Points:         360
 PW_GRID| Volume element (a.u.^3)  0.3905E-02     Volume (a.u.^3)    182205.0337
 PW_GRID| Grid span                                                    FULLSPACE
 PW_GRID|   Distribution                         Average         Max         Min
 PW_GRID|   G-Vectors                           972000.0      972720      971640
 PW_GRID|   G-Rays                                2700.0        2702        2699
 PW_GRID|   Real Space Points                   972000.0     1036800      907200

 PW_GRID| Information for grid number                                          3
 PW_GRID| Number of the reference grid                                         1
 PW_GRID| Grid distributed over                                    48 processors
 PW_GRID| Real space group dimensions                                    48    1
 PW_GRID| the grid is blocked:                                                NO
 PW_GRID| Cutoff [a.u.]                                                     55.6
 PW_GRID| spherical cutoff:                                                   NO
 PW_GRID|   Bounds   1            -96      95                Points:         192
 PW_GRID|   Bounds   2            -96      95                Points:         192
 PW_GRID|   Bounds   3            -96      95                Points:         192
 PW_GRID| Volume element (a.u.^3)  0.2574E-01     Volume (a.u.^3)    182205.0337
 PW_GRID| Grid span                                                    FULLSPACE
 PW_GRID|   Distribution                         Average         Max         Min
 PW_GRID|   G-Vectors                           147456.0      147648      147264
 PW_GRID|   G-Rays                                 768.0         769         767
 PW_GRID|   Real Space Points                   147456.0      147456      147456

 PW_GRID| Information for grid number                                          4
 PW_GRID| Number of the reference grid                                         1
 PW_GRID| Grid distributed over                                    48 processors
 PW_GRID| Real space group dimensions                                    48    1
 PW_GRID| the grid is blocked:                                                NO
 PW_GRID| Cutoff [a.u.]                                                     18.5
 PW_GRID| spherical cutoff:                                                   NO
 PW_GRID|   Bounds   1            -60      59                Points:         120
 PW_GRID|   Bounds   2            -60      59                Points:         120
 PW_GRID|   Bounds   3            -60      59                Points:         120
 PW_GRID| Volume element (a.u.^3)  0.1054         Volume (a.u.^3)    182205.0337
 PW_GRID| Grid span                                                    FULLSPACE
 PW_GRID|   Distribution                         Average         Max         Min
 PW_GRID|   G-Vectors                            36000.0       36240       35880
 PW_GRID|   G-Rays                                 300.0         302         299
 PW_GRID|   Real Space Points                    36000.0       43200       28800

 POISSON| Solver                                                         WAVELET
 POISSON| Wavelet| Scaling function                                           40
 POISSON| Periodicity                                                       NONE

 RS_GRID| Information for grid number                                          1
 RS_GRID|   Bounds   1           -288     287                Points:         576
 RS_GRID|   Bounds   2           -288     287                Points:         576
 RS_GRID|   Bounds   3           -288     287                Points:         576
 RS_GRID| Real space distribution over                                  3 groups
 RS_GRID| Real space distribution along direction                              1
 RS_GRID| Border size                                                         34
 RS_GRID| Real space distribution over                                  4 groups
 RS_GRID| Real space distribution along direction                              2
 RS_GRID| Border size                                                         34
 RS_GRID| Real space distribution over                                  4 groups
 RS_GRID| Real space distribution along direction                              3
 RS_GRID| Border size                                                         34
 RS_GRID|   Distribution                         Average         Max         Min
 RS_GRID|   Planes                                 260.0         260         260
 RS_GRID|   Distribution                         Average         Max         Min
 RS_GRID|   Planes                                 212.0         212         212
 RS_GRID|   Distribution                         Average         Max         Min
 RS_GRID|   Planes                                 212.0         212         212

 RS_GRID| Information for grid number                                          2
 RS_GRID|   Bounds   1           -180     179                Points:         360
 RS_GRID|   Bounds   2           -180     179                Points:         360
 RS_GRID|   Bounds   3           -180     179                Points:         360
 RS_GRID| Real space distribution over                                  3 groups
 RS_GRID| Real space distribution along direction                              1
 RS_GRID| Border size                                                         38
 RS_GRID| Real space distribution over                                  4 groups
 RS_GRID| Real space distribution along direction                              2
 RS_GRID| Border size                                                         38
 RS_GRID| Real space distribution over                                  4 groups
 RS_GRID| Real space distribution along direction                              3
 RS_GRID| Border size                                                         38
 RS_GRID|   Distribution                         Average         Max         Min
 RS_GRID|   Planes                                 196.0         196         196
 RS_GRID|   Distribution                         Average         Max         Min
 RS_GRID|   Planes                                 166.0         166         166
 RS_GRID|   Distribution                         Average         Max         Min
 RS_GRID|   Planes                                 166.0         166         166

 RS_GRID| Information for grid number                                          3
 RS_GRID|   Bounds   1            -96      95                Points:         192
 RS_GRID|   Bounds   2            -96      95                Points:         192
 RS_GRID|   Bounds   3            -96      95                Points:         192
 RS_GRID| Real space fully replicated
 RS_GRID| Group size                                                           1

 RS_GRID| Information for grid number                                          4
 RS_GRID|   Bounds   1            -60      59                Points:         120
 RS_GRID|   Bounds   2            -60      59                Points:         120
 RS_GRID|   Bounds   3            -60      59                Points:         120
 RS_GRID| Real space fully replicated
 RS_GRID| Group size                                                           1
 
 RI-RPA| using GPW style
 

 *** WARNING in qs_scf_initialization.F:1037 :: The numerical rank of the  ***
 *** overlap matrix is lower than the number of requested MOs! Reduce the  ***
 *** number of MOs to the number of available MOs. If necessary, request a ***
 *** lower number of MOs or increase EPS_DEFAULT or EPS_PGF_ORB.           ***


 *** WARNING in qs_scf_initialization.F:1037 :: The numerical rank of the  ***
 *** overlap matrix is lower than the number of requested MOs! Reduce the  ***
 *** number of MOs to the number of available MOs. If necessary, request a ***
 *** lower number of MOs or increase EPS_DEFAULT or EPS_PGF_ORB.           ***


 Extrapolation method: initial_guess

 Atomic guess: The first density matrix is obtained in terms of atomic orbitals
               and electronic configurations assigned to each atomic kind

 Guess for atomic kind: C

 Electronic structure
    Total number of core electrons                                          0.00
    Total number of valence electrons                                       6.00
    Total number of electrons                                               6.00
    Multiplicity                                                   not specified
    S      2.00  2.00
    P      2.00


 *******************************************************************************
                  Iteration          Convergence                     Energy [au]
 *******************************************************************************
                          1        0.147208                     -37.407693601264
                          2        0.119028                     -37.412727810384
                          3        0.151591E-02                 -37.421609589284
                          4        0.252468E-03                 -37.421611675915
                          5        0.320487E-05                 -37.421611714904
                          6        0.162446E-06                 -37.421611714918

 Energy components [Hartree]           Total Energy ::          -37.421611714918
                                        Band Energy ::          -21.277675770449
                                     Kinetic Energy ::           37.196286588355
                                   Potential Energy ::          -74.617898303274
                                      Virial (-V/T) ::            2.006057731758
                                        Core Energy ::          -50.332032480142
                                          XC Energy ::           -4.732819490143
                                     Coulomb Energy ::           17.643240255367

 Orbital energies  State     L     Occupation   Energy[a.u.]          Energy[eV]

                       1     0          2.000      -9.943251         -270.569607
                       2     0          2.000      -0.498684          -13.569893

                       1     1          2.000      -0.196903           -5.358002


 Total Electron Density at R=0:                                       121.622713

 Guess for atomic kind: N

 Electronic structure
    Total number of core electrons                                          0.00
    Total number of valence electrons                                       7.00
    Total number of electrons                                               7.00
    Multiplicity                                                   not specified
    S      2.00  2.00
    P      3.00


 *******************************************************************************
                  Iteration          Convergence                     Energy [au]
 *******************************************************************************
                          1        0.380519                     -53.980466341384
                          2        0.378247                     -53.984135962459
                          3        0.134995E-01                 -54.018715315788
                          4        0.495764E-03                 -54.018772519246
                          5        0.432099E-04                 -54.018772571804
                          6        0.442273E-07                 -54.018772572302

 Energy components [Hartree]           Total Energy ::          -54.018772572302
                                        Band Energy ::          -30.143749938617
                                     Kinetic Energy ::           53.734490267735
                                   Potential Energy ::         -107.753262840037
                                      Virial (-V/T) ::            2.005290499699
                                        Core Energy ::          -73.699523175202
                                          XC Energy ::           -6.145173260726
                                     Coulomb Energy ::           25.825923863626

 Orbital energies  State     L     Occupation   Energy[a.u.]          Energy[eV]

                       1     0          2.000     -14.006310         -381.131070
                       2     0          2.000      -0.672190          -18.291221

                       1     1          3.000      -0.262250           -7.136190


 Total Electron Density at R=0:                                       197.177759

 Guess for atomic kind: H

 Electronic structure
    Total number of core electrons                                          0.00
    Total number of valence electrons                                       1.00
    Total number of electrons                                               1.00
    Multiplicity                                                   not specified
    S      1.00


 *******************************************************************************
                  Iteration          Convergence                     Energy [au]
 *******************************************************************************
                          1        0.917598E-02                  -0.444895232610
                          2        0.101733E-02                  -0.444969959338
                          3        0.739292E-04                  -0.444971980690
                          4        0.601377E-07                  -0.444971989573

 Energy components [Hartree]           Total Energy ::           -0.444971989573
                                        Band Energy ::           -0.230448725171
                                     Kinetic Energy ::            0.428990089350
                                   Potential Energy ::           -0.873962078923
                                      Virial (-V/T) ::            2.037254707321
                                        Core Energy ::           -0.496265746842
                                          XC Energy ::           -0.234272986041
                                     Coulomb Energy ::            0.285566743311

 Orbital energies  State     L     Occupation   Energy[a.u.]          Energy[eV]

                       1     0          1.000      -0.230449           -6.270829


 Total Electron Density at R=0:                                         0.247098

 Spin 1
 Re-scaling the density matrix to get the right number of electrons for spin 1
                  # Electrons              Trace(P)               Scaling factor
                           65                65.000                        1.000

 Spin 2
 Re-scaling the density matrix to get the right number of electrons for spin 2
                  # Electrons              Trace(P)               Scaling factor
                           65                65.000                        1.000

 Spin 1

 Number of electrons:                                                         65
 Number of occupied orbitals:                                                 65
 Number of molecular orbitals:                                               664

 Spin 2

 Number of electrons:                                                         65
 Number of occupied orbitals:                                                 65
 Number of molecular orbitals:                                               664

 Number of orbital functions:                                                668
 Number of independent orbital functions:                                    664


 SCF WAVEFUNCTION OPTIMIZATION

  Step     Update method      Time    Convergence         Total energy    Change
  ------------------------------------------------------------------------------
     1 NoMix/Diag. 0.10E+00    6.1     0.15985131      -804.3979936593 -8.04E+02
     2 Broy./Diag. 0.10E+00    7.0     0.02659376      -786.4611299922  1.79E+01
     3 Broy./Diag. 0.10E+00    7.2     0.01184516      -790.7709163343 -4.31E+00
     4 Broy./Diag. 0.10E+00    7.2     0.03270858      -794.6582955412 -3.89E+00
     5 Broy./Diag. 0.10E+00    7.2     0.00563491      -797.4238695198 -2.77E+00
     6 Broy./Diag. 0.10E+00    7.3     0.00529645      -797.8660572045 -4.42E-01
     7 Broy./Diag. 0.10E+00    7.4     0.00714876      -798.2746725931 -4.09E-01
     8 Broy./Diag. 0.10E+00    7.5     0.00904010      -798.4719639032 -1.97E-01
     9 Broy./Diag. 0.10E+00    7.7     0.00842905      -798.8545038897 -3.83E-01
    10 Broy./Diag. 0.10E+00    7.8     0.00505644      -799.1115849296 -2.57E-01
    11 Broy./Diag. 0.10E+00    7.8     0.00508328      -799.2243208650 -1.13E-01
    12 Broy./Diag. 0.10E+00    7.8     0.00119447      -799.3135313829 -8.92E-02
    13 Broy./Diag. 0.10E+00    7.8     0.00121348      -799.2920621187  2.15E-02
    14 Broy./Diag. 0.10E+00    7.8     0.00247250      -799.2972838036 -5.22E-03
    15 Broy./Diag. 0.10E+00    7.8     0.00060520      -799.3318998183 -3.46E-02
    16 Broy./Diag. 0.10E+00    7.8     0.00089960      -799.3372374909 -5.34E-03
    17 Broy./Diag. 0.10E+00    7.8     0.00162821      -799.3425323049 -5.29E-03
    18 Broy./Diag. 0.10E+00    7.8     0.00199434      -799.3524018683 -9.87E-03
    19 Broy./Diag. 0.10E+00    7.9     0.00061648      -799.3512098173  1.19E-03
    20 Broy./Diag. 0.10E+00    7.8     0.00111272      -799.3582856765 -7.08E-03
    21 Broy./Diag. 0.10E+00    7.8     0.00202846      -799.3635517419 -5.27E-03
    22 Broy./Diag. 0.10E+00    7.8     0.00064730      -799.3760453634 -1.25E-02
    23 Broy./Diag. 0.10E+00    7.8     0.00034988      -799.3930536645 -1.70E-02
[...]
 -                                                                             -
 -------------------------------------------------------------------------------
 
 CP2K version 2025.2 (Development Version), the CP2K developers group (2025).
 CP2K is freely available from https://www.cp2k.org/ .
 
 T. D. Kuehne, M. Iannuzzi, M. Del Ben, V. V. Rybkin, P. Seewald, F. Stein, T. 
 Laino, R. Z. Khaliullin, O. Schuett, F. Schiffmann, D. Golze, J. Wilhelm, S. 
 Chulkov, M. H. Bani-Hashemian, V. Weber, U. Borstnik, M. Taillefumier, A. S. 
 Jakobovits, A. Lazzaro, H. Pabst, T. Mueller, R. Schade, M. Guidon, S. 
 Andermatt, N. Holmberg, G. K. Schenter, A. Hehn, A. Bussy, F. Belleflamme, G. 
 Tabacchi, A. Gloess, M. Lass, I. Bethune, C. J. Mundy, C. Plessl, M. Watkins, 
 J. VandeVondele, M. Krack, J. Hutter.
 J. Chem. Phys. 152, 194103 (2020).
 CP2K: An electronic structure and molecular dynamics software package - 
 Quickstep: Efficient and accurate electronic structure calculations.
 https://doi.org/10.1063/5.0007045

 J. Wilhelm, D. Golze, L. Talirz, J. Hutter, C. A. Pignedoli.
 J. Phys. Chem. Lett. 9, 306-312 (2018).
 Toward GW calculations on thousands of atoms.
 https://doi.org/10.1021/acs.jpclett.7b02740

 J. Wilhelm, J. Hutter.
 Phys. Rev. B 95, 235123 (2017).
 Periodic GW calculations in the Gaussian and plane-waves scheme.
 https://doi.org/10.1103/PhysRevB.95.235123

 O. Schuett, P. Messmer, J. Hutter, J. VandeVondele.
 Electronic Structure Calculations on Graphics Processing Units, 173-190 (2016).
 GPU-Accelerated Sparse Matrix-Matrix Multiplication for Linear Scaling Density 
 Functional Theory.
 https://doi.org/10.1002/9781118670712.ch8

 J. Wilhelm, M. Del Ben, J. Hutter.
 J. Chem. Theory Comput. 12, 3623-3635 (2016).
 GW in the Gaussian and plane waves scheme with application to linear acenes.
 https://doi.org/10.1021/acs.jctc.6b00380

 A. Heinecke, G. Henry, M. Hutchinson, H. Pabst.
 Proceedings of Intl. Supercomputing Conference, 981-991 (2016).
 LIBXSMM: Accelerating Small Matrix Multiplications by Runtime Code Generation.
 https://doi.org/10.1109/SC.2016.83

 M. Del Ben, O. Schuett, T. Wentz, P. Messmer, J. Hutter, J. VandeVondele.
 Comput. Phys. Commun. 187, 120-129 (2015).
 Enabling simulation at the fifth rung of DFT: Large scale RPA calculations with 
 excellent time to solution.
 https://doi.org/10.1016/j.cpc.2014.10.021

 J. Hutter, M. Iannuzzi, F. Schiffmann, J. VandeVondele.
 WIREs Comput Mol Sci. 4, 15-25 (2014).
 CP2K: atomistic simulations of condensed matter systems.
 https://doi.org/10.1002/wcms.1159

 U. Borstnik, J. VandeVondele, V. Weber, J. Hutter.
 Parallel Comput. 40, 47-58 (2014).
 Sparse matrix multiplication: The distributed block-compressed sparse row 
 library.
 https://doi.org/10.1016/j.parco.2014.03.012

 A. Marek, V. Blum, R. Johanni, V. Havu, B. Lang, T. Auckenthaler, A. Heinecke, 
 H. Bungartz, H. Lederer.
 J. Phys. Condens. Matter 26, 213201 (2014).
 The ELPA library: scalable parallel eigenvalue solutions for electronic 
 structure theory and computational science.
 https://doi.org/10.1088/0953-8984/26/21/213201

 M. Del Ben, J. Hutter, J. VandeVondele.
 J. Chem. Theory Comput. 9, 2654-2671 (2013).
 Electron Correlation in the Condensed Phase from a Resolution of Identity 
 Approach Based on the Gaussian and Plane Waves Scheme.
 https://doi.org/10.1021/ct4002202

 M. Del Ben, J. Hutter, J. VandeVondele.
 J. Chem. Theory Comput. 8, 4177-4188 (2012).
 Second-Order Moller-Plesset Perturbation Theory in the Condensed Phase: An 
 Efficient and Massively Parallel Gaussian and Plane Waves Approach.
 https://doi.org/10.1021/ct300531w

 L. Genovese, T. Deutsch, S. Goedecker.
 J. Chem. Phys. 127, 054704 (2007).
 Efficient and accurate three-dimensional Poisson solver for surface problems.
 https://doi.org/10.1063/1.2754685

 L. Genovese, T. Deutsch, A. Neelov, S. Goedecker, G. Beylkin.
 J. Chem. Phys. 125, 074105 (2006).
 Efficient solution of Poisson's equation with free boundary conditions.
 https://doi.org/10.1063/1.2335442

 M. Frigo, S. G. Johnson.
 Proc. IEEE 93, 216-231 (2005).
 The design and implementation of FFTW3.
 https://doi.org/10.1109/JPROC.2004.840301

 M. Krack, M. Parrinello.
 Phys. Chem. Chem. Phys. 2, 2105-2112 (2000).
 All-electron ab-initio molecular dynamics.
 https://doi.org/10.1039/b001167n

 G. Lippert, J. Hutter, M. Parrinello.
 Theor. Chem. Acc. 103, 124-140 (1999).
 The Gaussian and augmented-plane-wave density functional method for ab initio 
 molecular dynamics simulations.
 https://doi.org/10.1007/s002140050523

 J. P. Perdew, K. Burke, M. Ernzerhof.
 Phys. Rev. Lett. 77, 3865-3868 (1996).
 Generalized gradient approximation made simple.
 https://doi.org/10.1103/PhysRevLett.77.3865


 -------------------------------------------------------------------------------
 -                                                                             -
 -                                T I M I N G                                  -
 -                                                                             -
 -------------------------------------------------------------------------------
 SUBROUTINE                       CALLS  ASD         SELF TIME        TOTAL TIME
                                MAXIMUM       AVERAGE  MAXIMUM  AVERAGE  MAXIMUM
 CP2K                                 1  1.0    0.080    0.081  618.465  618.512
 qs_energies                          1  2.0    0.007    0.008  617.556  617.603
 scf_env_do_scf                       1  3.0    0.001    0.001  527.214  527.256
 scf_env_do_scf_inner_loop           68  4.0    0.003    0.005  527.213  527.255
 qs_ks_build_kohn_sham_matrix        69  7.0    0.017    0.019  348.566  348.582
 qs_ks_update_qs_env                 68  5.0    0.001    0.001  346.381  346.397
 rebuild_ks_matrix                   68  6.0    0.000    0.000  346.375  346.390
 fft_wrap_pw1pw2                   2804  9.8    0.051    0.057  306.323  309.695
 fft_wrap_pw1pw2_500               1856 11.2   12.409   13.659  295.387  299.245
 fft3d_ps                          2804 11.8  160.040  163.945  240.850  246.623
 qs_vxc_create                       69  8.0    0.001    0.004  195.085  196.356
 xc_vxc_pw_create                    68  9.0    4.037    4.827  195.084  196.355
 xc_pw_derive                       816 11.0    0.007    0.009  144.039  148.081
 xc_rho_set_and_dset_create          68 10.0    4.143    5.195   98.521  100.711
 qs_rho_update_rho_low               69  5.0    0.002    0.002   91.258   91.263
 xc_pw_divergence                   136 10.0    0.004    0.005   88.851   91.169
 calculate_rho_elec                 138  6.0    1.034    1.106   90.983   90.987
 gspace_mixing                       67  5.0    1.005    1.076   88.158   88.165
 pw_poisson_solve                    69  8.0    2.298    2.490   72.623   72.751
 density_rs2pw                      138  7.0    0.007    0.008   63.574   65.730
 mp_alltoall_z22v                  2804 13.8   43.978   56.545   43.978   56.545
 broyden_mixing                      67  6.0   53.032   53.857   55.968   56.065
 x_to_yz                           1408 13.1   22.279   23.814   47.926   51.307
 mp2_main                             1  3.0    0.003    0.003   47.613   47.618
 mp2_gpw_main                         1  4.0    0.003    0.003   45.355   45.359
 rpa_ri_compute_en                    1  5.0    0.001    0.002   43.473   43.477
 rpa_num_int                          1  6.0    0.005    0.005   43.276   43.279
 sum_up_and_integrate                69  8.0    0.002    0.002   43.234   43.271
 integrate_v_rspace                 138  9.0    0.003    0.004   42.192   42.253
 scf_post_calculation_gpw             1  3.0    0.000    0.000   40.910   40.921
 parallel_gemm_fm_cosma             779  8.6   38.501   38.952   38.501   38.952
 yz_to_x                           1396 12.5   14.484   15.009   32.815   38.760
 ps_wavelet_solve                    69  9.0   31.960   34.485   37.399   37.921
 potential_pw2rs                    138 10.0    0.056    0.066   37.422   37.474
 mp_alltoall_d54                     69 10.0    3.354   29.789    3.354   29.789
 rpa_num_int_RPA_matrix_operati     125  7.0    0.002    0.009   28.703   28.942
 calc_mat_Q                         250  8.0    0.001    0.001   27.971   28.263
 grid_collocate_task_list           138  7.0   25.303   28.146   25.303   28.146
 contract_S_to_Q                    250  9.0    0.002    0.003   27.197   27.595
 transfer_rs2pw                     782  8.0    0.011    0.014   20.456   23.182
 pw_gather_p                       1396 11.5   20.926   22.117   20.926   22.117
 pw_to_cube                          40  5.0   17.579   18.445   19.466   20.722
 qs_scf_post_unocc_cubes              2  4.0    1.000    1.498   20.339   20.350
 qs_scf_post_occ_cubes                2  4.0    1.099    1.611   20.312   20.314
 calculate_wavefunction              40  5.0    0.093    0.308   19.087   19.314
 collocate_function                  40  6.0    0.029    0.098   18.993   19.280
 pw_scatter_p                      1408 12.1   18.521   19.031   18.521   19.031
 transfer_pw2rs                     623 10.7    0.007    0.009   18.713   18.808
 pw_derive                         1023 11.6   16.172   17.716   16.172   17.716
 mp_waitany                       17006 11.2   13.662   15.866   13.662   15.866
 prepare_gapw_den                    69  8.0    0.001    0.001   15.197   15.398
 pw_axpy                           2341  8.7   14.584   15.331   14.584   15.331
 transfer_rs2pw_500                 248  9.4    5.838    6.354   12.720   15.264
 compute_GW_self_energy             125  7.0    0.004    0.011   14.312   14.522
 put_rho0_on_grid                    69  9.0    0.509    0.578   14.222   14.423
 compute_GW_self_energy_deep        250  8.0    1.150    1.172   12.570   12.712
 transfer_pw2rs_500                 209 11.3    5.353    5.787   11.484   11.933
 mp_sum_d                          1986  6.4    4.341   11.175    4.341   11.175
 fft_wrap_pw1pw2_170                316 10.2    0.512    0.719    8.964   10.542
 pw_copy_to_array                  1396 11.5    8.311    9.587    8.311    9.587
 pw_copy                           1714 10.7    8.925    9.561    8.925    9.561
 xc_functional_eval                 340 10.5    0.001    0.002    6.844    8.377
 pbe_lsd_eval                       340 11.5    6.842    8.375    6.842    8.375
 mp_alltoall_d11v                  2907  9.6    5.322    6.055    5.322    6.055
 pw_copy_from_array                1408 12.1    4.685    5.673    4.685    5.673
 integrate_vhg0_rspace               69  8.0    0.160    0.195    5.626    5.653
 pw_poisson_set                      70  8.9    0.002    0.002    4.768    4.895
 cp2k_distribution_to_z_slices       69  9.0    2.082    2.319    3.327    4.854
 grid_integrate_task_list           138 10.0    0.847    4.749    0.847    4.749
 rs_grid_zero                       646 10.5    4.477    4.714    4.477    4.714
 rs_gather_matrices                 138 10.0    0.006    0.011    3.919    4.440
 mp_waitall_1                     33684 12.4    2.711    4.339    2.711    4.339
 transfer_rs2pw_170                 178  8.8    1.382    1.575    3.478    3.911
 pw_zero                            858  9.9    3.464    3.825    3.464    3.825
 transfer_pw2rs_170                 138 12.0    1.262    1.346    3.302    3.747
 transfer_rs2pw_60                  178  8.8    2.101    2.163    3.501    3.582
 transfer_pw2rs_60                  138 12.0    2.027    2.314    3.204    3.514
 qs_scf_new_mos                      68  5.0    0.004    0.004    2.769    2.784
 mp_max_i                           614  2.8    0.650    2.488    0.650    2.488
 eigensolver_symm                   138  6.0    0.007    0.008    2.450    2.451
 mp_sum_dm                         9801  7.4    1.329    2.387    1.329    2.387
 pw_scale                           678  8.6    2.148    2.328    2.148    2.328
 compute_vec_Sigma_x_minus_vxc_       1  4.0    0.000    0.000    2.198    2.198
 fft_wrap_pw1pw2_60                 316 10.2    0.042    0.061    1.658    2.168
 cp_fm_diag_elpa                    140  6.9    0.000    0.000    2.044    2.052
 mp_alltoall_d45                     70 10.0    1.579    1.979    1.579    1.979
 cp_fm_redistribute_end             140  7.9    1.009    1.972    1.016    1.975
 mp_sendrecv_dv                   16732  9.8    1.841    1.950    1.841    1.950
 cp_fm_diag_elpa_base               140  7.9    0.928    1.862    0.946    1.902
 mp2_ri_gpw_compute_in                1  5.0    0.002    0.004    1.871    1.871
 mp2_ri_gpw_compute_in_loop           1  6.0    0.000    0.001    1.833    1.834
 init_scf_run                         1  3.0    0.002    0.003    1.759    1.759
 mp_file_write_all_chv               40  6.0    0.503    1.758    0.503    1.758
 scf_env_initial_rho_setup            1  4.0    0.001    0.001    1.696    1.697
 pw_integral_ab_c1d_c1d_gs           69  9.0    1.006    1.060    1.301    1.559
 mp_file_set_view_chv                40  6.0    0.951    1.402    0.951    1.402
 mp2_eri_3c_integrate                 1  7.0    0.097    0.152    1.053    1.191
 calculate_vxc_atom                  69  8.0    0.073    0.241    1.120    1.131
 mp_sync                            577  8.3    0.861    1.127    0.861    1.127
 integrate_set_3c                472842  8.0    0.695    0.823    0.957    1.116
 pw_poisson_rebuild                  69  9.0    0.000    0.000    0.973    0.992
 ps_wavelet_create                    1 10.0    0.000    0.000    0.973    0.992
 RS_z_slice_distribution              1 11.0    0.914    0.951    0.973    0.992
 cp_fm_cholesky_invert              125  8.0    0.932    0.957    0.932    0.957
 calc_fm_mat_S_rpa                  250  9.0    0.772    0.839    0.772    0.839
 mp_sum_dv                          522  8.5    0.500    0.822    0.500    0.822
 gaVxcgb_GC                         136  9.0    0.171    0.798    0.171    0.798
 transfer_rs2pw_20                  178  8.8    0.305    0.326    0.746    0.795
 transfer_pw2rs_20                  138 12.0    0.358    0.401    0.716    0.783
 cp_fm_to_fm_submat_general         250 10.0    0.414    0.757    0.414    0.757
 scale_and_distribute               138 10.0    0.564    0.704    0.564    0.704
 contract_B_L                         4  7.0    0.015    0.017    0.515    0.693
 qs_init_subsys                       1  2.0    0.082    0.083    0.652    0.652
 compute_Erpa_by_freq_int           125  8.0    0.004    0.004    0.619    0.651
 cp_fm_cholesky_decompose           126  9.0    0.618    0.650    0.618    0.650
 xc_pw_smooth                       136 10.0    0.000    0.001    0.504    0.559
 qs_env_setup                         1  3.0    0.005    0.005    0.552    0.552
 qs_env_rebuild_pw_env                2  3.5    0.000    0.000    0.546    0.546
 pw_env_rebuild                       1  5.0    0.014    0.015    0.545    0.546
 calculate_rho0_atom                207  9.0    0.530    0.544    0.530    0.544
 pw_grid_setup                        4  6.0    0.000    0.000    0.529    0.529
 pw_grid_setup_internal               4  7.0    0.007    0.008    0.528    0.528
 pw_grid_sort                         4  8.0    0.314    0.320    0.454    0.460
 mp_bcast_l                          40  6.0    0.432    0.441    0.432    0.441
 calculate_rho_atom                 207  9.0    0.185    0.437    0.185    0.437
 cp_fm_uplo_to_full                 265  8.3    0.268    0.403    0.268    0.403
 dbcsr_multiply_generic             405  8.0    0.006    0.007    0.359    0.375
 mp_cart_create                     631  9.9    0.174    0.350    0.174    0.351
 fft_wrap_pw1pw2_20                 316 10.2    0.016    0.019    0.264    0.335
 dbt_pgrid_create_expert             84 10.8    0.000    0.002    0.157    0.333
 dbt_total                            8  8.0    0.000    0.000    0.319    0.319
 abc_contract                    472842  9.0    0.261    0.295    0.261    0.295
 mixing_init                          1  5.0    0.281    0.293    0.293    0.293
 dbt_contract                         4  9.0    0.000    0.001    0.280    0.282
 calculate_rho_atom_coeff            69  6.0    0.076    0.092    0.273    0.273
 calculate_dm_sparse                136  6.0    0.000    0.001    0.263    0.265
 cp_dbcsr_plus_fm_fm_t              136  7.0    0.001    0.001    0.262    0.264
 write_available_results              1  4.0    0.002    0.002    0.255    0.255
 write_mo_free_results                1  5.0    0.022    0.026    0.221    0.221
 update_ks_atom                      69  8.0    0.061    0.072    0.211    0.220
 dbt_tas_multiply                     8 11.5    0.000    0.000    0.209    0.209
 dbt_tas_total                        8 12.5    0.001    0.001    0.209    0.209
 create_integ_mat                     2  6.0    0.001    0.002    0.192    0.192
 dbcsr_complete_redistribute        553  8.5    0.028    0.032    0.182    0.188
 multiply_cannon                    405  9.0    0.013    0.014    0.164    0.175
 cp_fm_symm                         138  7.0    0.153    0.162    0.153    0.162
 make_m2s                           810  9.0    0.003    0.004    0.157    0.162
 Q_trace_and_add_unit_matrix        125  8.0    0.003    0.004    0.074    0.159
 mp_bcast_dm                       7728  9.0    0.149    0.152    0.149    0.152
 dbt_tas_dbm                          8 13.5    0.000    0.000    0.146    0.146
 multiply_cannon_loop               405 10.0    0.004    0.004    0.135    0.144
 hirshfeld_integration                2  6.0    0.006    0.033    0.142    0.142
 sort_shells                          4  9.0    0.139    0.142    0.139    0.142
 rs_scatter_matrices                138  7.0    0.005    0.012    0.063    0.138
 make_images                        810 10.0    0.032    0.039    0.132    0.137
 copy_dbcsr_to_fm                   277  6.9    0.003    0.003    0.116    0.131
 copy_fm_to_dbcsr                   276  8.0    0.000    0.000    0.123    0.129
 mp_alltoall_i22                    831  9.3    0.110    0.128    0.110    0.128
 array2fm                             4  7.0    0.000    0.000    0.123    0.128
 dbt_tas_mm_1N                        8 14.5    0.000    0.000    0.111    0.128
 dbm_multiply                         8 15.5    0.111    0.128    0.111    0.128
 offload_free_buffer                 77  8.4    0.095    0.123    0.095    0.123
 Vh_1c_gg_integrals                  69  8.0    0.015    0.059    0.086    0.119
 multiply_cannon_multrec           1956 10.9    0.092    0.104    0.093    0.105
 cp_fm_redistribute_start           140  7.9    0.065    0.080    0.081    0.103
 dbt_copy                            12 10.0    0.000    0.000    0.090    0.097
 create_qs_kind_set                   1  2.0    0.000    0.000    0.081    0.082
 read_qs_kind                         3  3.0    0.045    0.058    0.081    0.082
 ao_to_mo_and_store_B_mult_2         33  7.0    0.000    0.000    0.063    0.069
 make_images_data                   810 11.0    0.004    0.004    0.064    0.067
 array2fm_info                        4  8.0    0.061    0.063    0.063    0.067
 hybrid_alltoall_any               1088 11.2    0.049    0.051    0.062    0.066
 -------------------------------------------------------------------------------

 The number of warnings for this run is : 2
 
 -------------------------------------------------------------------------------
  **** **** ******  **  PROGRAM ENDED AT                 2026-02-18 12:45:12.866
 ***** ** ***  *** **   PROGRAM RAN ON                                    cn0915
 **    ****   ******    PROGRAM RAN BY                                  metdyn02
 ***** **    ** ** **   PROGRAM PROCESS ID                                667766
  **** **  *******  **  PROGRAM STOPPED IN /scratch/hpc-prf-metdyn/metdyn02_Remi
                                           /05_Dyson_orbitals/cp2k/open/singleto
                                           pen/PBE
