SIRIUS 7.7.0, git hash: https://api.github.com/repos/electronic-structure/SIRIUS/git/ref/tags/v7.7.0
 DBCSR| CPU Multiplication driver                                           BLAS (U)
 DBCSR| Multrec recursion limit                                              512 (U)
 DBCSR| Multiplication stack size                                           1000 (D)
 DBCSR| Maximum elements for images                                    UNLIMITED (U)
 DBCSR| Multiplicative factor virtual images                                   1 (U)
 DBCSR| Use multiplication densification                                       T (D)
 DBCSR| Multiplication size stacks                                             3 (U)
 DBCSR| Use memory pool for CPU allocation                                     F (U)
 DBCSR| Number of 3D layers                                               SINGLE (U)
 DBCSR| Use MPI memory allocation                                              F (U)
 DBCSR| Use RMA algorithm                                                      F (U)
 DBCSR| Use Communication thread                                               T (U)
 DBCSR| Communication thread load                                             75 (D)
 DBCSR| MPI: My process id                                                     0
 DBCSR| MPI: Number of processes                                              96
 DBCSR| OMP: Current number of threads                                         4
 DBCSR| OMP: Max number of threads                                             4
 DBCSR| Split modifier for TAS multiplication algorithm                  1.0E+00 (U)


  **** **** ******  **  PROGRAM STARTED AT               2026-02-18 12:34:49.688
 ***** ** ***  *** **   PROGRAM STARTED ON                                cn0712
 **    ****   ******    PROGRAM STARTED BY                              metdyn02
 ***** **    ** ** **   PROGRAM PROCESS ID                               3314004
  **** **  *******  **  PROGRAM STARTED IN /scratch/hpc-prf-metdyn/metdyn02_Remi
                                           /05_Dyson_orbitals/cp2k/open/singleto
                                           pen/B3LYP

 CP2K| version string:                 CP2K version 2025.2 (Development Version)
 CP2K| source code revision number:                                  git:2a4e9c4
 CP2K| cp2kflags: omp libint fftw3 libxc libgrpp elpa parallel scalapack mpi_f08
 CP2K|             cosma xsmm plumed2 spglib sirius libvori libbqb libvdwxc hdf5
 CP2K| is freely available from                            https://www.cp2k.org/
 CP2K| Program compiled at                      Fri Oct 24 04:52:17 PM CEST 2025
 CP2K| Program compiled on                                                login1
 CP2K| Program compiled for                                                local
 CP2K| Data directory path    /opt/software/pc2/EB-SW/software/CP2K/2025.2-foss-
 CP2K| Input file name                                                    GW.inp

 GLOBAL| Force Environment number                                              1
 GLOBAL| Basis set file name            /scratch/hpc-prf-metdyn/metdyn02_Remi/05
 GLOBAL| Potential file name            /pc2/groups/hpc-prf-metdyn/metdyn02_Remi
 GLOBAL| MM Potential file name                                     MM_POTENTIAL
 GLOBAL| Coordinate file name                                      __STD_INPUT__
 GLOBAL| Method name                                                        CP2K
 GLOBAL| Project name                                                       Open
 GLOBAL| Run type                                                         ENERGY
 GLOBAL| FFT library                                                       FFTW3
 GLOBAL| Diagonalization library                                            ELPA
 GLOBAL| Cholesky decomposition library                                ScaLAPACK
 GLOBAL| DGEMM library                                                      BLAS
 GLOBAL| Minimum number of eigenvectors for ELPA usage                        16
 GLOBAL| Orthonormality check for eigenvectors                          DISABLED
 GLOBAL| Matrix multiplication library                                     COSMA
 GLOBAL| All-to-all communication in single precision                          F
 GLOBAL| FFTs using library dependent lengths                                  F
 GLOBAL| Grid backend                                                       AUTO
 GLOBAL| Global print level                                               MEDIUM
 GLOBAL| MPI I/O enabled                                                       T
 GLOBAL| Total number of message passing processes                            96
 GLOBAL| Number of distributed systems (nodes)                                 2
 GLOBAL| Number of threads for this process                                    4
 GLOBAL| This output is from process                                           0
 GLOBAL| OpenMP stack size per thread (OMP_STACKSIZE)                    default
 GLOBAL| CPU model name                          AMD EPYC 9655 96-Core Processor
 GLOBAL| CPUID                                                              1003

 MEMORY| system memory details [Kb]
 MEMORY|                        rank 0           min           max       average
 MEMORY| MemTotal            791039084     791039080     791039084     791039082
 MEMORY| MemFree             743166656     743166656     747161108     745163882
 MEMORY| Buffers                  1072          1072          3200          2136
 MEMORY| Cached                5674180       5674180      10477152       8075666
 MEMORY| Slab                  4223884       2471648       4223884       3347766
 MEMORY| SReclaimable          1298772       1021844       1298772       1160308
 MEMORY| MemLikelyFree       750140680     750140680     758663304     754401992


 *** Fundamental physical constants (SI units) ***

 *** Literature: B. J. Mohr and B. N. Taylor,
 ***             CODATA recommended values of the fundamental physical
 ***             constants: 2006, Web Version 5.1
 ***             http://physics.nist.gov/constants

 Speed of light in vacuum [m/s]                             2.99792458000000E+08
 Magnetic constant or permeability of vacuum [N/A**2]       1.25663706143592E-06
 Electric constant or permittivity of vacuum [F/m]          8.85418781762039E-12
 Planck constant (h) [J*s]                                  6.62606896000000E-34
 Planck constant (h-bar) [J*s]                              1.05457162825177E-34
 Elementary charge [C]                                      1.60217648700000E-19
 Electron mass [kg]                                         9.10938215000000E-31
 Electron g factor [ ]                                     -2.00231930436220E+00
 Proton mass [kg]                                           1.67262163700000E-27
 Fine-structure constant                                    7.29735253760000E-03
 Rydberg constant [1/m]                                     1.09737315685270E+07
 Avogadro constant [1/mol]                                  6.02214179000000E+23
 Boltzmann constant [J/K]                                   1.38065040000000E-23
 Atomic mass unit [kg]                                      1.66053878200000E-27
 Bohr radius [m]                                            5.29177208590000E-11

 *** Conversion factors ***

 [u] -> [a.u.]                                              1.82288848426455E+03
 [Angstrom] -> [Bohr] = [a.u.]                              1.88972613288564E+00
 [a.u.] = [Bohr] -> [Angstrom]                              5.29177208590000E-01
 [a.u.] -> [s]                                              2.41888432650478E-17
 [a.u.] -> [fs]                                             2.41888432650478E-02
 [a.u.] -> [J]                                              4.35974393937059E-18
 [a.u.] -> [N]                                              8.23872205491840E-08
 [a.u.] -> [K]                                              3.15774647902944E+05
 [a.u.] -> [kJ/mol]                                         2.62549961709828E+03
 [a.u.] -> [kcal/mol]                                       6.27509468713739E+02
 [a.u.] -> [Pa]                                             2.94210107994716E+13
 [a.u.] -> [bar]                                            2.94210107994716E+08
 [a.u.] -> [atm]                                            2.90362800883016E+08
 [a.u.] -> [eV]                                             2.72113838565563E+01
 [a.u.] -> [Hz]                                             6.57968392072181E+15
 [a.u.] -> [1/cm] (wave numbers)                            2.19474631370540E+05
 [a.u./Bohr**2] -> [1/cm]                                   5.14048714338585E+03
 

 CELL_TOP| Volume [angstrom^3]:                                     27000.000000
 CELL_TOP| Vector a [angstrom    30.000     0.000     0.000   |a| =    30.000000
 CELL_TOP| Vector b [angstrom     0.000    30.000     0.000   |b| =    30.000000
 CELL_TOP| Vector c [angstrom     0.000     0.000    30.000   |c| =    30.000000
 CELL_TOP| Angle (b,c), alpha [degree]:                                90.000000
 CELL_TOP| Angle (a,c), beta  [degree]:                                90.000000
 CELL_TOP| Angle (a,b), gamma [degree]:                                90.000000
 CELL_TOP| Numerically orthorhombic:                                         YES
 CELL_TOP| Periodicity                                                      NONE

 GENERATE|  Preliminary Number of Bonds generated:                             0
 GENERATE|  Achieved consistency in connectivity generation.

 CELL| Volume [angstrom^3]:                                         27000.000000
 CELL| Vector a [angstrom]:      30.000     0.000     0.000   |a| =    30.000000
 CELL| Vector b [angstrom]:       0.000    30.000     0.000   |b| =    30.000000
 CELL| Vector c [angstrom]:       0.000     0.000    30.000   |c| =    30.000000
 CELL| Angle (b,c), alpha [degree]:                                    90.000000
 CELL| Angle (a,c), beta  [degree]:                                    90.000000
 CELL| Angle (a,b), gamma [degree]:                                    90.000000
 CELL| Numerically orthorhombic:                                             YES
 CELL| Periodicity                                                          NONE

 CELL_REF| Volume [angstrom^3]:                                     27000.000000
 CELL_REF| Vector a [angstrom    30.000     0.000     0.000   |a| =    30.000000
 CELL_REF| Vector b [angstrom     0.000    30.000     0.000   |b| =    30.000000
 CELL_REF| Vector c [angstrom     0.000     0.000    30.000   |c| =    30.000000
 CELL_REF| Angle (b,c), alpha [degree]:                                90.000000
 CELL_REF| Angle (a,c), beta  [degree]:                                90.000000
 CELL_REF| Angle (a,b), gamma [degree]:                                90.000000
 CELL_REF| Numerically orthorhombic:                                         YES
 CELL_REF| Periodicity                                                      NONE

 *******************************************************************************
 *******************************************************************************
 **                                                                           **
 **     #####                         ##              ##                      **
 **    ##   ##            ##          ##              ##                      **
 **   ##     ##                       ##            ######                    **
 **   ##     ##  ##   ##  ##   #####  ##  ##   ####   ##    #####    #####    **
 **   ##     ##  ##   ##  ##  ##      ## ##   ##      ##   ##   ##  ##   ##   **
 **   ##  ## ##  ##   ##  ##  ##      ####     ###    ##   ######   ######    **
 **    ##  ###   ##   ##  ##  ##      ## ##      ##   ##   ##       ##        **
 **     #######   #####   ##   #####  ##  ##  ####    ##    #####   ##        **
 **           ##                                                    ##        **
 **                                                                           **
 **                                                ... make the atoms dance   **
 **                                                                           **
 **            Copyright (C) by CP2K developers group (2000-2025)             **
 **                      J. Chem. Phys. 152, 194103 (2020)                    **
 **                                                                           **
 *******************************************************************************

 DFT| Spin unrestricted (spin-polarized) Kohn-Sham calculation               UKS
 DFT| Multiplicity                                                             1
 DFT| Number of spin states                                                    2
 DFT| Charge                                                                   0
 DFT| Self-interaction correction (SIC)                                       NO
 DFT| Cutoffs: density                                              1.000000E-10
 DFT|          gradient                                             1.000000E-10
 DFT|          tau                                                  1.000000E-10
 DFT|          cutoff_smoothing_range                               0.000000E+00
 DFT| XC density smoothing                                                  NONE
 DFT| XC derivatives                                                          PW

 FUNCTIONAL| BECKE88:
 FUNCTIONAL| A. Becke, Phys. Rev. A 38, 3098 (1988) {LSD version}               
 FUNCTIONAL| LYP:
 FUNCTIONAL| C. Lee, W. Yang, R.G. Parr, Phys. Rev. B, 37, 785 (1988) {LSD versi
 FUNCTIONAL| on}                                                                
 FUNCTIONAL| VWN:
 FUNCTIONAL| S. H. Vosko, L. Wilk and M. Nusair, Can. J. Phys. 58, 1200 (1980) {
 FUNCTIONAL| LDA version}                                                       
 FUNCTIONAL| XALPHA:
 FUNCTIONAL| Dirac/Slater local exchange; parameter=  0.6667                    


 QS| Method:                                                                GAPW
 QS| Density plane wave grid type                        NON-SPHERICAL FULLSPACE
 QS| Number of grid levels:                                                    4
 QS| Density cutoff [a.u.]:                                                500.0
 QS| Multi grid cutoff [a.u.]: 1) grid level                               500.0
 QS|                           2) grid level                               166.7
 QS|                           3) grid level                                55.6
 QS|                           4) grid level                                18.5
 QS| Grid level progression factor:                                          3.0
 QS| Relative density cutoff [a.u.]:                                        50.0
 QS| Interaction thresholds: eps_pgf_orb:                                1.0E-12
 QS|                         eps_filter_matrix:                          0.0E+00
 QS|                         eps_core_charge:                            1.0E-14
 QS|                         eps_rho_gspace:                             1.0E-12
 QS|                         eps_rho_rspace:                             1.0E-12
 QS|                         eps_gvg_rspace:                             1.0E-06
 QS|                         eps_ppl:                                    1.0E-02
 QS|                         eps_ppnl:                                   1.0E-08
 QS| GAPW|      One center basis from orbital basis primitives
 QS| GAPW|                   eps_fit:                                    1.0E-04
 QS| GAPW|                   eps_iso:                                    1.0E-12
 QS| GAPW|                   eps_svd:                                    1.0E-08
 QS| GAPW|                   eps_cpc:                                    1.0E-12
 QS| GAPW|   atom-r-grid: quadrature:                                     GC_LOG
 QS| GAPW|      atom-s-grid:  max l :                                          6
 QS| GAPW|      max_l_rho0 :                                                   2


 ATOMIC KIND INFORMATION

  1. Atomic kind: C                                     Number of atoms:      18

     Orbital Basis Set                                                 def2-TZVP

       Number of orbital shell sets:                                          11
       Number of orbital shells:                                              11
       Number of primitive Cartesian functions:                               20
       Number of Cartesian basis functions:                                   36
       Number of spherical basis functions:                                   31
       Norm type:                                                              2

       Normalised Cartesian orbitals:

                        Set   Shell   Orbital            Exponent    Coefficient

                          1       1    1s                0.095164       0.122114

                          2       1    1px               0.100568       0.080727
                          2       1    1py               0.100568       0.080727
                          2       1    1pz               0.100568       0.080727

                          3       1    1s                0.229728       0.236494

                          4       1    1px               0.288875       0.301876
                          4       1    1py               0.288875       0.301876
                          4       1    1pz               0.288875       0.301876

                          5       1    1dx2              0.318000       0.221644
                          5       1    1dxy              0.318000       0.383899
                          5       1    1dxz              0.318000       0.383899
                          5       1    1dy2              0.318000       0.221644
                          5       1    1dyz              0.318000       0.383899
                          5       1    1dz2              0.318000       0.221644

                          6       1    1s                0.576963       0.471815

                          7       1    1fx3              0.761000       0.796288
                          7       1    1fx2y             0.761000       1.780553
                          7       1    1fx2z             0.761000       1.780553
                          7       1    1fxy2             0.761000       1.780553
                          7       1    1fxyz             0.761000       3.084008
                          7       1    1fxz2             0.761000       1.780553
                          7       1    1fy3              0.761000       0.796288
                          7       1    1fy2z             0.761000       1.780553
                          7       1    1fyz2             0.761000       1.780553
                          7       1    1fz3              0.761000       0.796288

                          8       1    1px              34.697232       1.359665
                                                         7.958262       1.451259
                                                         2.378083       1.270923
                                                         0.814332       0.802572
                          8       1    1py              34.697232       1.359665
                                                         7.958262       1.451259
                                                         2.378083       1.270923
                                                         0.814332       0.802572
                          8       1    1pz              34.697232       1.359665
                                                         7.958262       1.451259
                                                         2.378083       1.270923
                                                         0.814332       0.802572

                          9       1    1dx2              1.097000       1.935401
                          9       1    1dxy              1.097000       3.352214
                          9       1    1dxz              1.097000       3.352214
                          9       1    1dy2              1.097000       1.935401
                          9       1    1dyz              1.097000       3.352214
                          9       1    1dz2              1.097000       1.935401

                         10       1    1s                6.206714       1.838354
                                                         2.576490       0.544758

                         11       1    1s            13575.349682       0.543591
                                                      2035.233368       1.014554
                                                       463.225624       1.731573
                                                       131.200196       2.691038
                                                        42.853016       3.604455
                                                        15.584186       3.702556

     RI Auxiliary Basis Set                                      def2-TZVP-RIFIT

       Number of orbital shell sets:                                          22
       Number of orbital shells:                                              22
       Number of primitive Cartesian functions:                               22
       Number of Cartesian basis functions:                                   86
       Number of spherical basis functions:                                   72
       Norm type:                                                              2

       Normalised Cartesian orbitals:

                        Set   Shell   Orbital            Exponent    Coefficient

                          1       1    1s                0.206828       0.218583

                          2       1    1px               0.237606       0.236462
                          2       1    1py               0.237606       0.236462
                          2       1    1pz               0.237606       0.236462

                          3       1    1dx2              0.257531       0.153236
                          3       1    1dxy              0.257531       0.265412
                          3       1    1dxz              0.257531       0.265412
                          3       1    1dy2              0.257531       0.153236
                          3       1    1dyz              0.257531       0.265412
                          3       1    1dz2              0.257531       0.153236

                          4       1    1s                0.405917       0.362442

                          5       1    1px               0.491713       0.586921
                          5       1    1py               0.491713       0.586921
                          5       1    1pz               0.491713       0.586921

                          6       1    1fx3              0.552898       0.388066
                          6       1    1fx2y             0.552898       0.867743
                          6       1    1fx2z             0.552898       0.867743
                          6       1    1fxy2             0.552898       0.867743
                          6       1    1fxyz             0.552898       1.502975
                          6       1    1fxz2             0.552898       0.867743
                          6       1    1fy3              0.552898       0.388066
                          6       1    1fy2z             0.552898       0.867743
                          6       1    1fyz2             0.552898       0.867743
                          6       1    1fz3              0.552898       0.388066

                          7       1    1dx2              0.587935       0.649734
                          7       1    1dxy              0.587935       1.125372
                          7       1    1dxz              0.587935       1.125372
                          7       1    1dy2              0.587935       0.649734
                          7       1    1dyz              0.587935       1.125372
                          7       1    1dz2              0.587935       0.649734

                          8       1    1s                1.074386       0.752108

                          9       1    1px               1.131808       1.664010
                          9       1    1py               1.131808       1.664010
                          9       1    1pz               1.131808       1.664010

                         10       1    1fx3              1.160680       2.058531
                         10       1    1fx2y             1.160680       4.603016
                         10       1    1fx2z             1.160680       4.603016
                         10       1    1fxy2             1.160680       4.603016
                         10       1    1fxyz             1.160680       7.972658
                         10       1    1fxz2             1.160680       4.603016
                         10       1    1fy3              1.160680       2.058531
                         10       1    1fy2z             1.160680       4.603016
                         10       1    1fyz2             1.160680       4.603016
                         10       1    1fz3              1.160680       2.058531

                         11       1    1dx2              1.415016       3.021634
                         11       1    1dxy              1.415016       5.233624
                         11       1    1dxz              1.415016       5.233624
                         11       1    1dy2              1.415016       3.021634
                         11       1    1dyz              1.415016       5.233624
                         11       1    1dz2              1.415016       3.021634

                         12       1    1fx3              2.387017      10.426283
                         12       1    1fx2y             2.387017      23.313877
                         12       1    1fx2z             2.387017      23.313877
                         12       1    1fxy2             2.387017      23.313877
                         12       1    1fxyz             2.387017      40.380819
                         12       1    1fxz2             2.387017      23.313877
                         12       1    1fy3              2.387017      10.426283
                         12       1    1fy2z             2.387017      23.313877
                         12       1    1fyz2             2.387017      23.313877
                         12       1    1fz3              2.387017      10.426283

                         13       1    1px               2.736198       5.016197
                         13       1    1py               2.736198       5.016197
                         13       1    1pz               2.736198       5.016197

                         14       1    1s                3.311579       1.749591

                         15       1    1dx2              3.411677      14.096240
                         15       1    1dxy              3.411677      24.415403
                         15       1    1dxz              3.411677      24.415403
                         15       1    1dy2              3.411677      14.096240
                         15       1    1dyz              3.411677      24.415403
                         15       1    1dz2              3.411677      14.096240

                         16       1    1px               6.379087      14.450678
                         16       1    1py               6.379087      14.450678
                         16       1    1pz               6.379087      14.450678

                         17       1    1dx2              9.067688      77.988119
                         17       1    1dxy              9.067688     135.079385
                         17       1    1dxz              9.067688     135.079385
                         17       1    1dy2              9.067688      77.988119
                         17       1    1dyz              9.067688     135.079385
                         17       1    1dz2              9.067688      77.988119

                         18       1    1s                9.433654       3.836366

                         19       1    1s               23.282845       7.554176

                         20       1    1px              24.794323      78.864291
                         20       1    1py              24.794323      78.864291
                         20       1    1pz              24.794323      78.864291

                         21       1    1s               59.862607      15.338285

                         22       1    1s              281.476933      48.977002

       Atomic covalent radius [Angstrom]:                                  0.770

       Atomic van der Waals radius [Angstrom]:                             1.700

     The atoms of this atomic kind are PAW atoms (GAPW):
       Hard Gaussian function radius:                                      1.512
       Rho0 radius:                                                        1.512
       Maximum GTO radius used for PAW projector construction:            24.566

     GAPW Soft Basis Set                                          def2-TZVP_soft

       Number of orbital shell sets:                                          11
       Number of orbital shells:                                              11
       Number of primitive Cartesian functions:                               11
       Number of Cartesian basis functions:                                   36
       Number of spherical basis functions:                                   31
       Norm type:                                                              2

       Normalised Cartesian orbitals:

                        Set   Shell   Orbital            Exponent    Coefficient

                          1       1    1s                0.095164       0.122114

                          2       1    1px               0.100568       0.080727
                          2       1    1py               0.100568       0.080727
                          2       1    1pz               0.100568       0.080727

                          3       1    1s                0.229728       0.236494

                          4       1    1px               0.288875       0.301876
                          4       1    1py               0.288875       0.301876
                          4       1    1pz               0.288875       0.301876

                          5       1    1dx2              0.318000       0.221644
                          5       1    1dxy              0.318000       0.383899
                          5       1    1dxz              0.318000       0.383899
                          5       1    1dy2              0.318000       0.221644
                          5       1    1dyz              0.318000       0.383899
                          5       1    1dz2              0.318000       0.221644

                          6       1    1s                0.576963       0.471815

                          7       1    1fx3              0.761000       0.796288
                          7       1    1fx2y             0.761000       1.780553
                          7       1    1fx2z             0.761000       1.780553
                          7       1    1fxy2             0.761000       1.780553
                          7       1    1fxyz             0.761000       3.084008
                          7       1    1fxz2             0.761000       1.780553
                          7       1    1fy3              0.761000       0.796288
                          7       1    1fy2z             0.761000       1.780553
                          7       1    1fyz2             0.761000       1.780553
                          7       1    1fz3              0.761000       0.796288

                          8       1    1px               2.378083       1.270923
                                                         0.814332       0.802572
                          8       1    1py               2.378083       1.270923
                                                         0.814332       0.802572
                          8       1    1pz               2.378083       1.270923
                                                         0.814332       0.802572

                          9       1    1dx2              1.097000       1.935401
                          9       1    1dxy              1.097000       3.352214
                          9       1    1dxz              1.097000       3.352214
                          9       1    1dy2              1.097000       1.935401
                          9       1    1dyz              1.097000       3.352214
                          9       1    1dz2              1.097000       1.935401

                         10       1    1s                2.576490       0.544758

                         11       1    1s         

     AE Potential information for                                            ALL

       Description:                                       All-electron potential
                                          Krack, Parrinello, PCCP 2, 2105 (2000)

       Gaussian exponent of the core charge distribution:               4.109048
       Electronic configuration (s p d ...):                           4   2   0

  2. Atomic kind: N                                     Number of atoms:       2

     Orbital Basis Set                                                 def2-TZVP

       Number of orbital shell sets:                                          11
       Number of orbital shells:                                              11
       Number of primitive Cartesian functions:                               20
       Number of Cartesian basis functions:                                   36
       Number of spherical basis functions:                                   31
       Norm type:                                                              2

       Normalised Cartesian orbitals:

                        Set   Shell   Orbital            Exponent    Coefficient

                          1       1    1s                0.136477       0.160031

                          2       1    1px               0.142608       0.124917
                          2       1    1py               0.142608       0.124917
                          2       1    1pz               0.142608       0.124917

                          3       1    1s                0.336471       0.314863

                          4       1    1px               0.416422       0.476823
                          4       1    1py               0.416422       0.476823
                          4       1    1pz               0.416422       0.476823

                          5       1    1dx2              0.469000       0.437484
                          5       1    1dxy              0.469000       0.757744
                          5       1    1dxz              0.469000       0.757744
                          5       1    1dy2              0.469000       0.437484
                          5       1    1dyz              0.469000       0.757744
                          5       1    1dz2              0.469000       0.437484

                          6       1    1s                0.846601       0.629027

                          7       1    1fx3              1.093000       1.798249
                          7       1    1fx2y             1.093000       4.021007
                          7       1    1fx2z             1.093000       4.021007
                          7       1    1fxy2             1.093000       4.021007
                          7       1    1fxyz             1.093000       6.964588
                          7       1    1fxz2             1.093000       4.021007
                          7       1    1fy3              1.093000       1.798249
                          7       1    1fy2z             1.093000       4.021007
                          7       1    1fyz2             1.093000       4.021007
                          7       1    1fz3              1.093000       1.798249

                          8       1    1px              49.200381       2.126481
                                                        11.346791       2.327937
                                                         3.427397       2.048573
                                                         1.178553       1.260732
                          8       1    1py              49.200381       2.126481
                                                        11.346791       2.327937
                                                         3.427397       2.048573
                                                         1.178553       1.260732
                          8       1    1pz              49.200381       2.126481
                                                        11.346791       2.327937
                                                         3.427397       2.048573
                                                         1.178553       1.260732

                          9       1    1dx2              1.654000       3.970513
                          9       1    1dxy              1.654000       6.877130
                          9       1    1dxz              1.654000       6.877130
                          9       1    1dy2              1.654000       3.970513
                          9       1    1dyz              1.654000       6.877130
                          9       1    1dz2              1.654000       3.970513

                         10       1    1s                8.979148       2.388068
                                                         3.686300       0.733788

                         11       1    1s            19730.800647       0.695604
                                                      2957.895874       1.298610
                                                       673.221336       2.219088
                                                       190.682495       3.463661
                                                        62.295442       4.696756
                                                        22.654161       4.952251

     RI Auxiliary Basis Set                                      def2-TZVP-RIFIT

       Number of orbital shell sets:                                          22
       Number of orbital shells:                                              22
       Number of primitive Cartesian functions:                               22
       Number of Cartesian basis functions:                                   86
       Number of spherical basis functions:                                   72
       Norm type:                                                              2

       Normalised Cartesian orbitals:

                        Set   Shell   Orbital            Exponent    Coefficient

                          1       1    1s                0.269072       0.266264

                          2       1    1px               0.335825       0.364403
                          2       1    1py               0.335825       0.364403
                          2       1    1pz               0.335825       0.364403

                          3       1    1dx2              0.350685       0.263035
                          3       1    1dxy              0.350685       0.455591
                          3       1    1dxz              0.350685       0.455591
                          3       1    1dy2              0.350685       0.263035
                          3       1    1dyz              0.350685       0.455591
                          3       1    1dz2              0.350685       0.263035

                          4       1    1s                0.637091       0.508231

                          5       1    1px               0.697694       0.908911
                          5       1    1py               0.697694       0.908911
                          5       1    1pz               0.697694       0.908911

                          6       1    1fx3              0.809476       0.914984
                          6       1    1fx2y             0.809476       2.045966
                          6       1    1fx2z             0.809476       2.045966
                          6       1    1fxy2             0.809476       2.045966
                          6       1    1fxyz             0.809476       3.543717
                          6       1    1fxz2             0.809476       2.045966
                          6       1    1fy3              0.809476       0.914984
                          6       1    1fy2z             0.809476       2.045966
                          6       1    1fyz2             0.809476       2.045966
                          6       1    1fz3              0.809476       0.914984

                          7       1    1dx2              0.859020       1.261582
                          7       1    1dxy              0.859020       2.185125
                          7       1    1dxz              0.859020       2.185125
                          7       1    1dy2              0.859020       1.261582
                          7       1    1dyz              0.859020       2.185125
                          7       1    1dz2              0.859020       1.261582

                          8       1    1s                1.372845       0.903912

                          9       1    1fx3              1.668650       4.658826
                          9       1    1fx2y             1.668650      10.417452
                          9       1    1fx2z             1.668650      10.417452
                          9       1    1fxy2             1.668650      10.417452
                          9       1    1fxyz             1.668650      18.043557
                          9       1    1fxz2             1.668650      10.417452
                          9       1    1fy3              1.668650       4.658826
                          9       1    1fy2z             1.668650      10.417452
                          9       1    1fyz2             1.668650      10.417452
                          9       1    1fz3              1.668650       4.658826

                         10       1    1px               1.675690       2.717580
                         10       1    1py               1.675690       2.717580
                         10       1    1pz               1.675690       2.717580

                         11       1    1dx2              2.091250       5.985769
                         11       1    1dxy              2.091250      10.367656
                         11       1    1dxz              2.091250      10.367656
                         11       1    1dy2              2.091250       5.985769
                         11       1    1dyz              2.091250      10.367656
                         11       1    1dz2              2.091250       5.985769

                         12       1    1fx3              3.468654      24.172222
                         12       1    1fx2y             3.468654      54.050731
                         12       1    1fx2z             3.468654      54.050731
                         12       1    1fxy2             3.468654      54.050731
                         12       1    1fxyz             3.468654      93.618612
                         12       1    1fxz2             3.468654      54.050731
                         12       1    1fy3              3.468654      24.172222
                         12       1    1fy2z             3.468654      54.050731
                         12       1    1fyz2             3.468654      54.050731
                         12       1    1fz3              3.468654      24.172222

                         13       1    1s                3.606548       1.865215

                         14       1    1px               3.969584       7.986774
                         14       1    1py               3.969584       7.986774
                         14       1    1pz               3.969584       7.986774

                         15       1    1dx2              5.029166      27.798888
                         15       1    1dxy              5.029166      48.149086
                         15       1    1dxz              5.029166      48.149086
                         15       1    1dy2              5.029166      27.798888
                         15       1    1dyz              5.029166      48.149086
                         15       1    1dz2              5.029166      27.798888

                         16       1    1px               8.669271      21.204025
                         16       1    1py               8.669271      21.204025
                         16       1    1pz               8.669271      21.204025

                         17       1    1s                9.067115       3.724020

                         18       1    1dx2             12.727173     141.153089
                         18       1    1dxy             12.727173     244.484323
                         18       1    1dxz             12.727173     244.484323
                         18       1    1dy2             12.727173     141.153089
                         18       1    1dyz             12.727173     244.484323
                         18       1    1dz2             12.727173     141.153089

                         19       1    1s               21.981132       7.235152

                         20       1    1px              34.121692     117.551530
                         20       1    1py              34.121692     117.551530
                         20       1    1pz              34.121692     117.551530

                         21       1    1s               62.030532      15.753034

                         22       1    1s              291.183943      50.238384

       Atomic covalent radius [Angstrom]:                                  0.750

       Atomic van der Waals radius [Angstrom]:                             1.550

     The atoms of this atomic kind are PAW atoms (GAPW):
       Hard Gaussian function radius:                                      1.512
       Rho0 radius:                                                        1.512
       Maximum GTO radius used for PAW projector construction:            24.566

     GAPW Soft Basis Set                                          def2-TZVP_soft

       Number of orbital shell sets:                                          11
       Number of orbital shells:                                              11
       Number of primitive Cartesian functions:                               11
       Number of Cartesian basis functions:                                   36
       Number of spherical basis functions:                                   31
       Norm type:                                                              2

       Normalised Cartesian orbitals:

                        Set   Shell   Orbital            Exponent    Coefficient

                          1       1    1s                0.136477       0.160031

                          2       1    1px               0.142608       0.124917
                          2       1    1py               0.142608       0.124917
                          2       1    1pz               0.142608       0.124917

                          3       1    1s                0.336471       0.314863

                          4       1    1px               0.416422       0.476823
                          4       1    1py               0.416422       0.476823
                          4       1    1pz               0.416422       0.476823

                          5       1    1dx2              0.469000       0.437484
                          5       1    1dxy              0.469000       0.757744
                          5       1    1dxz              0.469000       0.757744
                          5       1    1dy2              0.469000       0.437484
                          5       1    1dyz              0.469000       0.757744
                          5       1    1dz2              0.469000       0.437484

                          6       1    1s                0.846601       0.629027

                          7       1    1fx3              1.093000       1.798249
                          7       1    1fx2y             1.093000       4.021007
                          7       1    1fx2z             1.093000       4.021007
                          7       1    1fxy2             1.093000       4.021007
                          7       1    1fxyz             1.093000       6.964588
                          7       1    1fxz2             1.093000       4.021007
                          7       1    1fy3              1.093000       1.798249
                          7       1    1fy2z             1.093000       4.021007
                          7       1    1fyz2             1.093000       4.021007
                          7       1    1fz3              1.093000       1.798249

                          8       1    1px               3.427397       2.048573
                                                         1.178553       1.260732
                          8       1    1py               3.427397       2.048573
                                                         1.178553       1.260732
                          8       1    1pz               3.427397       2.048573
                                                         1.178553       1.260732

                          9       1    1dx2              1.654000       3.970513
                          9       1    1dxy              1.654000       6.877130
                          9       1    1dxz              1.654000       6.877130
                          9       1    1dy2              1.654000       3.970513
                          9       1    1dyz              1.654000       6.877130
                          9       1    1dz2              1.654000       3.970513

                         10       1    1s                3.686300       0.733788

                         11       1    1s         

     AE Potential information for                                            ALL

       Description:                                       All-electron potential
                                          Krack, Parrinello, PCCP 2, 2105 (2000)

       Gaussian exponent of the core charge distribution:               5.979100
       Electronic configuration (s p d ...):                           4   3   0

  3. Atomic kind: H                                     Number of atoms:       8

     Orbital Basis Set                                                 def2-TZVP

       Number of orbital shell sets:                                           4
       Number of orbital shells:                                               4
       Number of primitive Cartesian functions:                                6
       Number of Cartesian basis functions:                                    6
       Number of spherical basis functions:                                    6
       Norm type:                                                              2

       Normalised Cartesian orbitals:

                        Set   Shell   Orbital            Exponent    Coefficient

                          1       1    1s                0.103072       0.129648

                          2       1    1s                0.327230       0.308355

                          3       1    1px               0.800000       1.078456
                          3       1    1py               0.800000       1.078456
                          3       1    1pz               0.800000       1.078456

                          4       1    1s               34.061341       0.255630
                                                         5.123575       0.461360
                                                         1.164663       0.681121

     RI Auxiliary Basis Set                                      def2-TZVP-RIFIT

       Number of orbital shell sets:                                           7
       Number of orbital shells:                                               7
       Number of primitive Cartesian functions:                                7
       Number of Cartesian basis functions:                                   13
       Number of spherical basis functions:                                   13
       Norm type:                                                              2

       Normalised Cartesian orbitals:

                        Set   Shell   Orbital            Exponent    Coefficient

                          1       1    1s                0.264481       0.262849

                          2       1    1s                0.595125       0.482910

                          3       1    1px               0.595224       0.745230
                          3       1    1py               0.595224       0.745230
                          3       1    1pz               0.595224       0.745230

                          4       1    1px               1.354038       2.081991
                          4       1    1py               1.354038       2.081991
                          4       1    1pz               1.354038       2.081991

                          5       1    1s                1.861107       1.135635

                          6       1    1px               2.452498       4.374727
                          6       1    1py               2.452498       4.374727
                          6       1    1pz               2.452498       4.374727

                          7       1    1s                9.335216       3.806303

       Atomic covalent radius [Angstrom]:                                  0.320

       Atomic van der Waals radius [Angstrom]:                             1.090

     The atoms of this atomic kind are PAW atoms (GAPW):
       Hard Gaussian function radius:                                      1.200
       Rho0 radius:                                                        1.200
       Maximum GTO radius used for PAW projector construction:            24.566

     GAPW Soft Basis Set                                          def2-TZVP_soft

       Number of orbital shell sets:                                           4
       Number of orbital shells:                                               4
       Number of primitive Cartesian functions:                                5
       Number of Cartesian basis functions:                                    6
       Number of spherical basis functions:                                    6
       Norm type:                                                              2

       Normalised Cartesian orbitals:

                        Set   Shell   Orbital            Exponent    Coefficient

                          1       1    1s                0.103072       0.129648

                          2       1    1s                0.327230       0.308355

                          3       1    1px               0.800000       1.078456
                          3       1    1py               0.800000       1.078456
                          3       1    1pz               0.800000       1.078456

                          4       1    1s                5.123575       0.461360
                                                         1.164663       0.681121

     AE Potential information for                                            ALL

       Description:                                       All-electron potential
                                          Krack, Parrinello, PCCP 2, 2105 (2000)

       Gaussian exponent of the core charge distribution:              12.500000
       Electronic configuration (s p d ...):                           1   0   0


 MOLECULE KIND INFORMATION


 All atoms are their own molecule, skipping detailed information


 TOTAL NUMBERS AND MAXIMUM NUMBERS

  Total number of            - Atomic kinds:                                   3
                             - Atoms:                                         28
                             - Shell sets:                                   252
                             - Shells:                                       252
                             - Primitive Cartesian functions:                448
                             - Cartesian basis functions:                    768
                             - Spherical basis functions:                    668

  Maximum angular momentum of the orbital basis functions:                     3


 MODULE QUICKSTEP: ATOMIC COORDINATES IN ANGSTROM

   Atom Kind Element         X             Y             Z       Z(eff)     Mass
      1    1 C     6     12.248669     18.202622     15.000019   6.0000  12.0107
      2    1 C     6     13.184750     19.187038     15.000015   6.0000  12.0107
      3    1 C     6     14.572726     19.012772     15.000007   6.0000  12.0107
      4    1 C     6     12.662966     16.839534     15.000011   6.0000  12.0107
      5    1 C     6     14.008852     16.571648     15.000007   6.0000  12.0107
      6    1 C     6     14.942277     17.639189     15.000005   6.0000  12.0107
      7    1 C     6     15.685891     19.859940     14.999999   6.0000  12.0107
      8    1 C     6     16.989543     19.478101     14.999986   6.0000  12.0107
      9    1 C     6     16.285343     17.184102     14.999996   6.0000  12.0107
     10    1 C     6     17.315127     18.091144     14.999986   6.0000  12.0107
     11    1 C     6     14.808268     15.339038     14.999994   6.0000  12.0107
     12    1 C     6     16.212311     15.716776     15.000005   6.0000  12.0107
     13    2 N     7     14.409135     14.101114     14.999989   7.0000  14.0067
     14    2 N     7     17.178698     14.846221     15.000007   7.0000  14.0067
     15    1 C     6     15.406123     13.162409     14.999993   6.0000  12.0107
     16    1 C     6     16.787289     13.533987     15.000003   6.0000  12.0107
     17    1 C     6     15.062895     11.795726     14.999988   6.0000  12.0107
     18    1 C     6     16.043458     10.833875     14.999994   6.0000  12.0107
     19    1 C     6     17.404355     11.199998     15.000004   6.0000  12.0107
     20    1 C     6     17.769931     12.524013     15.000008   6.0000  12.0107
     21    3 H     1     14.011817     11.538646     14.999983   1.0000   1.0079
     22    3 H     1     15.772314      9.785994     14.999993   1.0000   1.0079
     23    3 H     1     18.164669     10.429616     15.000006   1.0000   1.0079
     24    3 H     1     18.808110     12.829033     15.000016   1.0000   1.0079
     25    3 H     1     17.784370     20.214006     14.999979   1.0000   1.0079
     26    3 H     1     18.349289     17.772143     14.999980   1.0000   1.0079
     27    3 H     1     11.928489     16.044680     15.000007   1.0000   1.0079
     28    3 H     1     11.191890     18.440374     15.000021   1.0000   1.0079



 SCF PARAMETERS         Density guess:                                    ATOMIC
                        --------------------------------------------------------
                        max_scf:                                             500
                        max_scf_history:                                       0
                        max_diis:                                              4
                        --------------------------------------------------------
                        eps_scf:                                        1.00E-06
                        eps_scf_history:                                0.00E+00
                        eps_diis:                                       1.00E-01
                        eps_eigval:                                     1.00E-05
                        --------------------------------------------------------
                        level_shift [a.u.]:                             0.000000
                        added MOs                                       603  603
                        --------------------------------------------------------
                        Mixing method:                            BROYDEN_MIXING
                                                charge density mixing in g-space
                        --------------------------------------------------------
                        No outer SCF

 PW_GRID| Information for grid number                                          1
 PW_GRID| Grid distributed over                                    96 processors
 PW_GRID| Real space group dimensions                                    96    1
 PW_GRID| the grid is blocked:                                                NO
 PW_GRID| Cutoff [a.u.]                                                    500.0
 PW_GRID| spherical cutoff:                                                   NO
 PW_GRID|   Bounds   1           -288     287                Points:         576
 PW_GRID|   Bounds   2           -288     287                Points:         576
 PW_GRID|   Bounds   3           -288     287                Points:         576
 PW_GRID| Volume element (a.u.^3)  0.9534E-03     Volume (a.u.^3)    182205.0337
 PW_GRID| Grid span                                                    FULLSPACE
 PW_GRID|   Distribution                         Average         Max         Min
 PW_GRID|   G-Vectors                          1990656.0     1990656     1990656
 PW_GRID|   G-Rays                                3456.0        3456        3456
 PW_GRID|   Real Space Points                  1990656.0     1990656     1990656

 PW_GRID| Information for grid number                                          2
 PW_GRID| Number of the reference grid                                         1
 PW_GRID| Grid distributed over                                    96 processors
 PW_GRID| Real space group dimensions                                    96    1
 PW_GRID| the grid is blocked:                                                NO
 PW_GRID| Cutoff [a.u.]                                                    166.7
 PW_GRID| spherical cutoff:                                                   NO
 PW_GRID|   Bounds   1           -180     179                Points:         360
 PW_GRID|   Bounds   2           -180     179                Points:         360
 PW_GRID|   Bounds   3           -180     179                Points:         360
 PW_GRID| Volume element (a.u.^3)  0.3905E-02     Volume (a.u.^3)    182205.0337
 PW_GRID| Grid span                                                    FULLSPACE
 PW_GRID|   Distribution                         Average         Max         Min
 PW_GRID|   G-Vectors                           486000.0      486360      485640
 PW_GRID|   G-Rays                                1350.0        1351        1349
 PW_GRID|   Real Space Points                   486000.0      518400      388800

 PW_GRID| Information for grid number                                          3
 PW_GRID| Number of the reference grid                                         1
 PW_GRID| Grid distributed over                                    96 processors
 PW_GRID| Real space group dimensions                                    96    1
 PW_GRID| the grid is blocked:                                                NO
 PW_GRID| Cutoff [a.u.]                                                     55.6
 PW_GRID| spherical cutoff:                                                   NO
 PW_GRID|   Bounds   1            -96      95                Points:         192
 PW_GRID|   Bounds   2            -96      95                Points:         192
 PW_GRID|   Bounds   3            -96      95                Points:         192
 PW_GRID| Volume element (a.u.^3)  0.2574E-01     Volume (a.u.^3)    182205.0337
 PW_GRID| Grid span                                                    FULLSPACE
 PW_GRID|   Distribution                         Average         Max         Min
 PW_GRID|   G-Vectors                            73728.0       73920       73536
 PW_GRID|   G-Rays                                 384.0         385         383
 PW_GRID|   Real Space Points                    73728.0       73728       73728

 PW_GRID| Information for grid number                                          4
 PW_GRID| Number of the reference grid                                         1
 PW_GRID| Grid distributed over                                    96 processors
 PW_GRID| Real space group dimensions                                    96    1
 PW_GRID| the grid is blocked:                                                NO
 PW_GRID| Cutoff [a.u.]                                                     18.5
 PW_GRID| spherical cutoff:                                                   NO
 PW_GRID|   Bounds   1            -60      59                Points:         120
 PW_GRID|   Bounds   2            -60      59                Points:         120
 PW_GRID|   Bounds   3            -60      59                Points:         120
 PW_GRID| Volume element (a.u.^3)  0.1054         Volume (a.u.^3)    182205.0337
 PW_GRID| Grid span                                                    FULLSPACE
 PW_GRID|   Distribution                         Average         Max         Min
 PW_GRID|   G-Vectors                            18000.0       18120       17880
 PW_GRID|   G-Rays                                 150.0         151         149
 PW_GRID|   Real Space Points                    18000.0       28800       14400

 POISSON| Solver                                                         WAVELET
 POISSON| Wavelet| Scaling function                                           40
 POISSON| Periodicity                                                       NONE

 RS_GRID| Information for grid number                                          1
 RS_GRID|   Bounds   1           -288     287                Points:         576
 RS_GRID|   Bounds   2           -288     287                Points:         576
 RS_GRID|   Bounds   3           -288     287                Points:         576
 RS_GRID| Real space distribution over                                  4 groups
 RS_GRID| Real space distribution along direction                              1
 RS_GRID| Border size                                                         34
 RS_GRID| Real space distribution over                                  4 groups
 RS_GRID| Real space distribution along direction                              2
 RS_GRID| Border size                                                         34
 RS_GRID| Real space distribution over                                  6 groups
 RS_GRID| Real space distribution along direction                              3
 RS_GRID| Border size                                                         34
 RS_GRID|   Distribution                         Average         Max         Min
 RS_GRID|   Planes                                 212.0         212         212
 RS_GRID|   Distribution                         Average         Max         Min
 RS_GRID|   Planes                                 212.0         212         212
 RS_GRID|   Distribution                         Average         Max         Min
 RS_GRID|   Planes                                 164.0         164         164

 RS_GRID| Information for grid number                                          2
 RS_GRID|   Bounds   1           -180     179                Points:         360
 RS_GRID|   Bounds   2           -180     179                Points:         360
 RS_GRID|   Bounds   3           -180     179                Points:         360
 RS_GRID| Real space distribution over                                  4 groups
 RS_GRID| Real space distribution along direction                              1
 RS_GRID| Border size                                                         38
 RS_GRID| Real space distribution over                                  4 groups
 RS_GRID| Real space distribution along direction                              2
 RS_GRID| Border size                                                         38
 RS_GRID| Real space distribution over                                  6 groups
 RS_GRID| Real space distribution along direction                              3
 RS_GRID| Border size                                                         38
 RS_GRID|   Distribution                         Average         Max         Min
 RS_GRID|   Planes                                 166.0         166         166
 RS_GRID|   Distribution                         Average         Max         Min
 RS_GRID|   Planes                                 166.0         166         166
 RS_GRID|   Distribution                         Average         Max         Min
 RS_GRID|   Planes                                 136.0         136         136

 RS_GRID| Information for grid number                                          3
 RS_GRID|   Bounds   1            -96      95                Points:         192
 RS_GRID|   Bounds   2            -96      95                Points:         192
 RS_GRID|   Bounds   3            -96      95                Points:         192
 RS_GRID| Real space fully replicated
 RS_GRID| Group size                                                           1

 RS_GRID| Information for grid number                                          4
 RS_GRID|   Bounds   1            -60      59                Points:         120
 RS_GRID|   Bounds   2            -60      59                Points:         120
 RS_GRID|   Bounds   3            -60      59                Points:         120
 RS_GRID| Real space fully replicated
 RS_GRID| Group size                                                           1

  HFX_INFO| Replica ID:                                                        1
  HFX_INFO| FRACTION:                                               0.2000000000
  HFX_INFO| Interaction Potential:                                       COULOMB
  HFX_INFO| EPS_SCHWARZ:                                                 1.0E-10
  HFX_INFO| EPS_SCHWARZ_FORCES                                           1.0E-08
  HFX_INFO| EPS_STORAGE_SCALING:                                         1.0E+00
  HFX_INFO| NBINS:                                                            64
  HFX_INFO| BLOCK_SIZE:                                                        1
  HFX_INFO| Number of periodic shells considered:                           NONE
  HFX_INFO| Number of periodic cells considered:                            NONE

 
 RI-RPA| using GPW style
 

 *** WARNING in qs_scf_initialization.F:1037 :: The numerical rank of the  ***
 *** overlap matrix is lower than the number of requested MOs! Reduce the  ***
 *** number of MOs to the number of available MOs. If necessary, request a ***
 *** lower number of MOs or increase EPS_DEFAULT or EPS_PGF_ORB.           ***


 *** WARNING in qs_scf_initialization.F:1037 :: The numerical rank of the  ***
 *** overlap matrix is lower than the number of requested MOs! Reduce the  ***
 *** number of MOs to the number of available MOs. If necessary, request a ***
 *** lower number of MOs or increase EPS_DEFAULT or EPS_PGF_ORB.           ***


 Extrapolation method: initial_guess

 Atomic guess: The first density matrix is obtained in terms of atomic orbitals
               and electronic configurations assigned to each atomic kind

 Guess for atomic kind: C

 Electronic structure
    Total number of core electrons                                          0.00
    Total number of valence electrons                                       6.00
    Total number of electrons                                               6.00
    Multiplicity                                                   not specified
    S      2.00  2.00
    P      2.00


 *******************************************************************************
                  Iteration          Convergence                     Energy [au]
 *******************************************************************************
                          1        0.147208                     -37.407693601264
                          2        0.119028                     -37.412727810384
                          3        0.151591E-02                 -37.421609589284
                          4        0.252468E-03                 -37.421611675915
                          5        0.320487E-05                 -37.421611714904
                          6        0.162446E-06                 -37.421611714918

 Energy components [Hartree]           Total Energy ::          -37.421611714918
                                        Band Energy ::          -21.277675770449
                                     Kinetic Energy ::           37.196286588355
                                   Potential Energy ::          -74.617898303274
                                      Virial (-V/T) ::            2.006057731758
                                        Core Energy ::          -50.332032480142
                                          XC Energy ::           -4.732819490143
                                     Coulomb Energy ::           17.643240255367

 Orbital energies  State     L     Occupation   Energy[a.u.]          Energy[eV]

                       1     0          2.000      -9.943251         -270.569607
                       2     0          2.000      -0.498684          -13.569893

                       1     1          2.000      -0.196903           -5.358002


 Total Electron Density at R=0:                                       121.622713

 Guess for atomic kind: N

 Electronic structure
    Total number of core electrons                                          0.00
    Total number of valence electrons                                       7.00
    Total number of electrons                                               7.00
    Multiplicity                                                   not specified
    S      2.00  2.00
    P      3.00


 *******************************************************************************
                  Iteration          Convergence                     Energy [au]
 *******************************************************************************
                          1        0.380519                     -53.980466341384
                          2        0.378247                     -53.984135962459
                          3        0.134995E-01                 -54.018715315788
                          4        0.495764E-03                 -54.018772519246
                          5        0.432099E-04                 -54.018772571804
                          6        0.442273E-07                 -54.018772572302

 Energy components [Hartree]           Total Energy ::          -54.018772572302
                                        Band Energy ::          -30.143749938617
                                     Kinetic Energy ::           53.734490267735
                                   Potential Energy ::         -107.753262840037
                                      Virial (-V/T) ::            2.005290499699
                                        Core Energy ::          -73.699523175202
                                          XC Energy ::           -6.145173260726
                                     Coulomb Energy ::           25.825923863626

 Orbital energies  State     L     Occupation   Energy[a.u.]          Energy[eV]

                       1     0          2.000     -14.006310         -381.131070
                       2     0          2.000      -0.672190          -18.291221

                       1     1          3.000      -0.262250           -7.136190


 Total Electron Density at R=0:                                       197.177759

 Guess for atomic kind: H

 Electronic structure
    Total number of core electrons                                          0.00
    Total number of valence electrons                                       1.00
    Total number of electrons                                               1.00
    Multiplicity                                                   not specified
    S      1.00


 *******************************************************************************
                  Iteration          Convergence                     Energy [au]
 *******************************************************************************
                          1        0.917598E-02                  -0.444895232610
                          2        0.101733E-02                  -0.444969959338
                          3        0.739292E-04                  -0.444971980690
                          4        0.601377E-07                  -0.444971989573

 Energy components [Hartree]           Total Energy ::           -0.444971989573
                                        Band Energy ::           -0.230448725171
                                     Kinetic Energy ::            0.428990089350
                                   Potential Energy ::           -0.873962078923
                                      Virial (-V/T) ::            2.037254707321
                                        Core Energy ::           -0.496265746842
                                          XC Energy ::           -0.234272986041
                                     Coulomb Energy ::            0.285566743311

 Orbital energies  State     L     Occupation   Energy[a.u.]          Energy[eV]

                       1     0          1.000      -0.230449           -6.270829


 Total Electron Density at R=0:                                         0.247098

 Spin 1
 Re-scaling the density matrix to get the right number of electrons for spin 1
                  # Electrons              Trace(P)               Scaling factor
                           65                65.000                        1.000

 Spin 2
 Re-scaling the density matrix to get the right number of electrons for spin 2
                  # Electrons              Trace(P)               Scaling factor
                           65                65.000                        1.000

 Spin 1

 Number of electrons:                                                         65
 Number of occupied orbitals:                                                 65
 Number of molecular orbitals:                                               664

 Spin 2

 Number of electrons:                                                         65
 Number of occupied orbitals:                                                 65
 Number of molecular orbitals:                                               664

 Number of orbital functions:                                                668
 Number of independent orbital functions:                                    664


 SCF WAVEFUNCTION OPTIMIZATION

  Step     Update method      Time    Convergence         Total energy    Change
  ------------------------------------------------------------------------------

  HFX_MEM_INFO| Est. max. program size before HFX [MiB]:                    2662
  HFX_MEM_INFO| Number of cart. primitive ERI's calculated:          59446284735
  HFX_MEM_INFO| Number of sph. ERI's calculated:                     14543953605
  HFX_MEM_INFO| Number of sph. ERI's stored in-core:                 14543953605
  HFX_MEM_INFO| Number of sph. ERI's stored on disk:                           0
  HFX_MEM_INFO| Number of sph. ERI's calculated on the fly:                    0
  HFX_MEM_INFO| Total memory consumption ERI's RAM [MiB]:                  36593
  HFX_MEM_INFO| Whereof max-vals [MiB]:                                      136
[...]
 WIREs Comput Mol Sci. 4, 15-25 (2014).
 CP2K: atomistic simulations of condensed matter systems.
 https://doi.org/10.1002/wcms.1159

 U. Borstnik, J. VandeVondele, V. Weber, J. Hutter.
 Parallel Comput. 40, 47-58 (2014).
 Sparse matrix multiplication: The distributed block-compressed sparse row 
 library.
 https://doi.org/10.1016/j.parco.2014.03.012

 A. Marek, V. Blum, R. Johanni, V. Havu, B. Lang, T. Auckenthaler, A. Heinecke, 
 H. Bungartz, H. Lederer.
 J. Phys. Condens. Matter 26, 213201 (2014).
 The ELPA library: scalable parallel eigenvalue solutions for electronic 
 structure theory and computational science.
 https://doi.org/10.1088/0953-8984/26/21/213201

 M. Del Ben, J. Hutter, J. VandeVondele.
 J. Chem. Theory Comput. 9, 2654-2671 (2013).
 Electron Correlation in the Condensed Phase from a Resolution of Identity 
 Approach Based on the Gaussian and Plane Waves Scheme.
 https://doi.org/10.1021/ct4002202

 M. Del Ben, J. Hutter, J. VandeVondele.
 J. Chem. Theory Comput. 8, 4177-4188 (2012).
 Second-Order Moller-Plesset Perturbation Theory in the Condensed Phase: An 
 Efficient and Massively Parallel Gaussian and Plane Waves Approach.
 https://doi.org/10.1021/ct300531w

 M. Guidon, J. Hutter, J. VandeVondele.
 J. Chem. Theory Comput. 5, 3010-3021 (2009).
 Robust Periodic Hartree-Fock Exchange for Large-Scale Simulations Using 
 Gaussian Basis Sets.
 https://doi.org/10.1021/ct900494g

 M. Guidon, F. Schiffmann, J. Hutter, J. VandeVondele.
 J. Chem. Phys. 128, 214104 (2008).
 Ab initio molecular dynamics using hybrid density functionals.
 https://doi.org/10.1063/1.2931945

 L. Genovese, T. Deutsch, S. Goedecker.
 J. Chem. Phys. 127, 054704 (2007).
 Efficient and accurate three-dimensional Poisson solver for surface problems.
 https://doi.org/10.1063/1.2754685

 L. Genovese, T. Deutsch, A. Neelov, S. Goedecker, G. Beylkin.
 J. Chem. Phys. 125, 074105 (2006).
 Efficient solution of Poisson's equation with free boundary conditions.
 https://doi.org/10.1063/1.2335442

 M. Frigo, S. G. Johnson.
 Proc. IEEE 93, 216-231 (2005).
 The design and implementation of FFTW3.
 https://doi.org/10.1109/JPROC.2004.840301

 M. Krack, M. Parrinello.
 Phys. Chem. Chem. Phys. 2, 2105-2112 (2000).
 All-electron ab-initio molecular dynamics.
 https://doi.org/10.1039/b001167n

 G. Lippert, J. Hutter, M. Parrinello.
 Theor. Chem. Acc. 103, 124-140 (1999).
 The Gaussian and augmented-plane-wave density functional method for ab initio 
 molecular dynamics simulations.
 https://doi.org/10.1007/s002140050523

 A. D. Becke.
 Phys. Rev. A 38, 3098-3100 (1988).
 Density-functional exchange-energy approximation with correct asymptotic 
 behavior.
 https://doi.org/10.1103/PhysRevA.38.3098

 C. T. Lee, W. T. Yang, R. G. Parr.
 Phys. Rev. B 37, 785-789 (1988).
 Development of the Colle-Salvetti correlation-energy formula into a functional 
 of the electron density.
 https://doi.org/10.1103/PhysRevB.37.785

 S. H. Vosko, L. Wilk, M. Nusair.
 Can. J. Phys. 58, 1200-1211 (1980).
 Accurate spin-dependent electron liquid correlation energies for local spin 
 density calculations: a critical analysis.
 https://doi.org/10.1139/p80-159


 -------------------------------------------------------------------------------
 -                                                                             -
 -                                T I M I N G                                  -
 -                                                                             -
 -------------------------------------------------------------------------------
 SUBROUTINE                       CALLS  ASD         SELF TIME        TOTAL TIME
                                MAXIMUM       AVERAGE  MAXIMUM  AVERAGE  MAXIMUM
 CP2K                                 1  1.0    0.070    0.083 1693.005 1693.104
 qs_energies                          1  2.0    0.001    0.006 1692.070 1692.152
 scf_env_do_scf                       1  3.0    0.001    0.002 1614.208 1614.298
 scf_env_do_scf_inner_loop          300  4.0    0.007    0.015 1614.206 1614.297
 qs_ks_build_kohn_sham_matrix       301  7.0    0.049    0.057 1146.858 1146.915
 qs_ks_update_qs_env                300  5.0    0.003    0.003 1144.431 1144.489
 rebuild_ks_matrix                  300  6.0    0.001    0.001 1144.398 1144.454
 fft_wrap_pw1pw2                  11620 10.0    0.162    0.203  711.552  727.333
 fft_wrap_pw1pw2_500               7888 11.3   24.931   26.451  682.310  697.332
 fft3d_ps                         11620 12.0  239.066  243.098  580.488  598.658
 qs_vxc_create                      301  8.0    0.006    0.009  470.382  470.643
 xc_vxc_pw_create                   300  9.0    9.189   10.339  470.376  470.636
 xc_pw_derive                      3600 11.0    0.024    0.028  338.897  351.758
 mp_alltoall_z22v                 11620 14.0  285.788  308.435  285.788  308.435
 pw_poisson_solve                   301  8.0    4.299    4.575  301.705  302.344
 qs_rho_update_rho_low              301  5.0    0.005    0.005  265.186  265.203
 calculate_rho_elec                 602  6.0    2.297    2.347  263.115  263.133
 xc_pw_divergence                   600 10.0    0.013    0.017  226.232  238.466
 xc_rho_set_and_dset_create         300 10.0   11.453   13.098  227.163  233.858
 ps_wavelet_solve                   301  9.0   70.123   80.808  191.659  192.019
 gspace_mixing                      299  5.0    2.301    2.354  191.100  191.111
 yz_to_x                           5572 12.7   23.561   24.497  173.120  188.188
 density_rs2pw                      602  7.0    0.024    0.027  171.635  185.563
 x_to_yz                           6048 13.2   31.589   32.312  167.817  175.271
 sum_up_and_integrate               301  8.0    0.005    0.006  145.550  145.598
 integrate_v_rspace                 602  9.0    0.013    0.018  143.319  143.540
 hfx_ks_matrix                      301  8.0    0.005    0.007  128.845  128.865
 integrate_four_center              301  9.0    5.444    6.189  128.816  128.835
 broyden_mixing                     299  6.0  119.341  122.156  126.961  128.111
 potential_pw2rs                    602 10.0    0.148    0.170  127.187  127.372
 integrate_four_center_main         301 10.0    0.397    0.974  115.601  119.725
 integrate_four_center_bin        30732 11.0  115.204  119.432  115.204  119.432
 mp_alltoall_d54                    301 10.0   56.866  115.513   56.866  115.513
 grid_collocate_task_list           602  7.0   88.097   96.232   88.097   96.232
 transfer_rs2pw                    2870  8.2    0.036    0.046   65.031   78.705
 transfer_pw2rs                    2711 10.8    0.027    0.033   72.942   73.358
 mp_alltoall_d45                    302 10.0   64.191   65.141   64.191   65.141
 mp_waitany                       92790 11.4   47.726   58.621   47.726   58.621
 mp2_main                             1  3.0    0.000    0.000   47.392   47.412
 transfer_rs2pw_500                 944  9.6   14.243   16.026   33.890   46.855
 mp2_gpw_main                         1  4.0    0.001    0.002   44.726   44.731
 prepare_gapw_den                   301  8.0    0.004    0.005   43.135   43.239
 xc_functional_eval                6000 10.6    0.010    0.016   37.451   42.727
 rpa_ri_compute_en                    1  5.0    0.000    0.000   42.052   42.054
 pw_gather_p                       5572 11.7   40.139   41.588   40.139   41.588
 pw_scatter_p                      6048 12.2   38.495   39.234   38.495   39.234
 put_rho0_on_grid                   301  9.0    1.138    1.314   38.877   38.982
 pw_derive                         4503 11.6   34.953   36.541   34.953   36.541
 transfer_pw2rs_500                 905 11.3   15.594   16.578   35.367   36.394
 pw_axpy                           9765  8.8   31.364   32.599   31.364   32.599
 mp_alltoall_d11v                  9483  9.3   27.798   29.510   27.798   29.510
 rpa_num_int                          1  6.0    0.007    0.009   28.129   28.130
 scf_post_calculation_gpw             1  3.0    0.000    0.000   27.749   27.751
 parallel_gemm_fm_cosma            1707  7.7   25.921   26.347   25.921   26.347
 vwn_lsd_eval                      1500 11.6   23.088   26.029   23.088   26.029
 mp_sum_dm                        42745  7.4   21.078   24.614   21.078   24.614
 fft_wrap_pw1pw2_170               1244 10.4    0.920    1.153   23.265   24.491
 pw_copy                           7514 10.7   21.723   22.421   21.723   22.421
 mp_waitall_1                    302670 12.0   13.676   21.062   13.676   21.062
 transfer_pw2rs_60                  602 12.0   13.925   15.941   19.670   20.988
 integrate_vhg0_rspace              301  8.0    0.725    0.980   19.669   19.714
 rpa_num_int_RPA_matrix_operati     125  7.0    0.001    0.007   18.145   18.377
 calc_mat_Q                         250  8.0    0.001    0.001   17.550   17.797
 contract_S_to_Q                    250  9.0    0.001    0.002   17.207   17.513
 transfer_rs2pw_60                  642  8.9    9.007    9.597   15.202   15.831
 qs_scf_new_mos                     300  5.0    0.004    0.006   15.699   15.733
 rs_gather_matrices                 602 10.0    0.023    0.061   14.019   15.647
 grid_integrate_task_list           602 10.0    2.098   15.442    2.098   15.442
 transfer_pw2rs_170                 602 12.0    3.622    4.117   13.791   15.189
 pw_copy_to_array                  5572 11.7   14.145   14.918   14.145   14.918
 qs_scf_post_occ_cubes                2  4.0    3.945    4.153   14.672   14.674
 eigensolver_symm                   602  6.0    0.031    0.041   13.881   13.934
 create_integ_mat                     2  6.0    0.001    0.001   13.918   13.918
 transfer_rs2pw_170                 642  8.9    3.150    3.726   12.455   13.709
 pw_to_cube                          40  5.0    8.595    8.978    9.663   13.034
 qs_scf_post_unocc_cubes              2  4.0    2.192    2.315   12.883   12.884
 pw_copy_from_array                6048 12.2   12.152   12.839   12.152   12.839
 mp_sum_d                          7696  7.9    9.646   12.312    9.646   12.312
 calculate_wavefunction              40  5.0    0.053    0.070   11.755   11.776
 collocate_function                  40  6.0    0.018    0.071   11.702   11.725
 cp2k_distribution_to_z_slices      301  9.0    4.284    4.449   11.472   11.657
 pw_poisson_set                     302  9.0    0.007    0.008   10.822   11.467
 rs_grid_zero                      2270 11.4   10.649   11.032   10.649   11.032
 cp_fm_diag_elpa                    604  7.0    0.001    0.002   10.896   10.941
 mp_sync                           3753 10.3    6.366   10.533    6.366   10.533
 cp_fm_redistribute_end             604  8.0    5.250    9.987    5.413   10.083
 compute_GW_self_energy             125  7.0    0.003    0.011    9.643    9.871
 lyp_lsd_eval                      1500 11.6    8.420    9.543    8.420    9.543
 mp_sendrecv_dv                  121980  9.9    8.564    9.347    8.564    9.347
 cp_fm_diag_elpa_base               604  8.0    4.419    8.908    4.530    9.234
 compute_GW_self_energy_deep        250  8.0    0.843    0.868    7.901    8.006
 pw_zero                           3642 10.0    7.078    7.455    7.078    7.455
 fft_wrap_pw1pw2_60                1244 10.4    0.088    0.137    4.475    5.889
 xb88_lsd_eval                     1500 11.6    4.512    5.033    4.512    5.033
 calculate_vxc_atom                 301  8.0    0.224    1.120    4.967    4.968
 pw_scale                          2998  8.6    4.331    4.652    4.331    4.652
 transfer_pw2rs_20                  602 12.0    1.604    1.821    4.089    4.625
 transfer_rs2pw_20                  642  8.9    1.078    1.210    3.448    4.052
 mp_file_write_all_chv               40  6.0    0.346    3.716    0.346    3.716
 gaVxcgb_GC                         600  9.0    0.375    3.490    0.375    3.490
 pw_integral_ab_c1d_c1d_gs          301  9.0    2.411    2.452    2.794    2.864
 mp_sum_dv                         1450  8.2    1.933    2.675    1.933    2.675
 mp2_ri_gpw_compute_in                1  5.0    0.002    0.004    2.660    2.661
 init_scf_run                         1  3.0    0.002    0.002    2.660    2.660
 mp2_ri_gpw_compute_in_loop           1  6.0    0.002    0.003    2.537    2.539
 scf_env_initial_rho_setup            1  4.0    0.001    0.001    2.490    2.494
 compute_vec_Sigma_x_minus_vxc_       1  4.0    0.000    0.000    2.482    2.483
 calculate_rho0_atom                903  9.0    2.335    2.382    2.335    2.382
 xalpha_lsd_eval                   1500 11.6    1.420    2.123    1.420    2.123
 calculate_rho_atom_coeff           301  6.0    0.236    0.311    2.066    2.067
 mp_sum_iv                         1401  8.9    1.192    2.026    1.192    2.026
 update_ks_atom                     301  8.0    0.200    0.245    1.971    2.021
 contract_B_L                         4  7.0    0.011    0.014    1.820    1.960
 calculate_rho_atom                 903  9.0    0.662    1.914    0.662    1.914
 mp_bcast_dm                      33712  9.0    1.771    1.790    1.771    1.790
 dbt_total                            8  8.0    0.000    0.000    1.599    1.599
 dbt_contract                         4  9.0    0.000    0.000    1.560    1.580
 fft_wrap_pw1pw2_20                1244 10.4    0.032    0.039    1.340    1.391
 scale_and_distribute               602 10.0    1.159    1.288    1.159    1.288
 xc_pw_smooth                       600 10.0    0.001    0.002    1.181    1.265
 cp_fm_redistribute_start           604  8.0    0.818    1.029    0.951    1.185
 calculate_dm_sparse                600  6.0    0.002    0.003    1.115    1.172
 cp_dbcsr_plus_fm_fm_t              600  7.0    0.004    0.004    1.107    1.163
 pw_poisson_rebuild                 301  9.0    0.000    0.000    1.105    1.136
 ps_wavelet_create                    1 10.0    0.000    0.000    1.105    1.136
 RS_z_slice_distribution              1 11.0    0.426    0.451    1.105    1.136
 cp_fm_symm                         602  7.0    1.082    1.134    1.082    1.134
 mp_max_i                           851  4.8    0.570    0.911    0.570    0.911
 dbcsr_complete_redistribute       1881  8.3    0.054    0.063    0.846    0.902
 mp_waitall_2                        48 15.8    0.618    0.896    0.618    0.896
 dbcsr_multiply_generic             741  8.0    0.015    0.021    0.860    0.879
 dbt_copy                            12 10.0    0.000    0.000    0.837    0.876
 dbt_reshape                          8 11.5    0.008    0.010    0.822    0.860
 integrate_four_center_getP         301 10.0    0.157    0.202    0.843    0.852
 mp_isend_dv                     104970 11.6    0.624    0.847    0.624    0.847
 cp_fm_cholesky_invert              125  8.0    0.823    0.847    0.823    0.847
 dbt_communicate_buffer               8 12.5    0.000    0.001    0.810    0.845
 copy_dbcsr_to_fm                   677  6.2    0.008    0.009    0.809    0.839
 calc_screening_functions             1 10.0    0.318    0.348    0.757    0.797
 powell_optimize                 833532 11.0    0.741    0.770    0.741    0.770
 mp2_eri_3c_integrate                 1  7.0    0.058    0.093    0.593    0.757
 rs_scatter_matrices                602  7.0    0.014    0.037    0.145    0.750
 integrate_four_center_dist_KS      301 10.0    0.102    0.175    0.728    0.730
 integrate_set_3c                262690  8.0    0.387    0.522    0.535    0.707
 dbt_tas_multiply                     8 11.5    0.000    0.000    0.700    0.700
 dbt_tas_total                        8 12.5    0.001    0.001    0.700    0.700
 qs_init_subsys                       1  2.0    0.045    0.065    0.687    0.689
 qs_env_setup                         1  3.0    0.001    0.001    0.629    0.649
 qs_env_rebuild_pw_env                2  3.5    0.000    0.000    0.626    0.646
 pw_env_rebuild                       1  5.0    0.006    0.009    0.626    0.646
 cp_fm_to_fm_submat_general         250 10.0    0.376    0.636    0.376    0.636
 pw_grid_setup                        4  6.0    0.001    0.002    0.615    0.636
 pw_grid_setup_internal               4  7.0    0.004    0.005    0.613    0.635
 mp_isend_dm3                     18558 11.4    0.445    0.633    0.445    0.633
 cp_fm_cholesky_decompose           126  9.0    0.564    0.630    0.564    0.630
 compute_Erpa_by_freq_int           125  8.0    0.003    0.009    0.506    0.552
 dbt_remap                            8 10.0    0.004    0.005    0.527    0.527
 mp_alltoall_i22                   2559  9.0    0.461    0.524    0.461    0.524
 cp_fm_uplo_to_full                 729  8.7    0.244    0.513    0.244    0.513
 dbt_tas_communicate_buffer          16 16.0    0.001    0.001    0.463    0.507
 calc_pair_dist_radii                 1 10.0    0.137    0.142    0.439    0.452
 mp_file_set_view_chv                40  6.0    0.328    0.436    0.328    0.436
 mp_rank_compare                  11620 13.0    0.392    0.421    0.392    0.421
 mp_cart_create                    1727  9.0    0.282    0.418    0.283    0.420
 copy_fm_to_dbcsr                  1204  8.0    0.002    0.002    0.362    0.419
 mp_bcast_l                          40  6.0    0.395    0.399    0.395    0.399
 Vh_1c_gg_integrals                 301  8.0    0.038    0.263    0.304    0.387
 multiply_cannon                    741  9.0    0.032    0.035    0.359    0.381
 calc_fm_mat_S_rpa                  250  9.0    0.343    0.373    0.343    0.373
 dbt_tas_replicate                    8 13.5    0.005    0.007    0.344    0.370
 dbt_tas_replicate_communicate_       8 14.5    0.000    0.000    0.324    0.350
 dbt_pgrid_create_expert             84 10.8    0.000    0.002    0.202    0.348
 offload_free_buffer                309  8.8    0.297    0.343    0.297    0.343
 make_m2s                          1482  9.0    0.013    0.013    0.325    0.334
 vxc_of_r_new                      1200  9.0    0.009    0.059    0.047    0.319
 dbcsr_desymmetrize_deep            678  7.2    0.010    0.013    0.282    0.312
 mp_cart_sub                       1358  8.2    0.310    0.311    0.310    0.311
 multiply_cannon_loop               741 10.0    0.026    0.029    0.274    0.294
 mp_bcast_dv                        604  9.0    0.163    0.281    0.163    0.281
 mp_sum_l                          3499  9.0    0.193    0.261    0.193    0.261
 mp_isend_im2                       442 13.5    0.167    0.253    0.167    0.253
 mp_irecv_dv                     105869 11.6    0.079    0.251    0.079    0.251
 pw_grid_remap                        4  8.0    0.004    0.005    0.228    0.233
 mp_sum_im3                           4  9.0    0.224    0.229    0.224    0.229
 make_images                       1482 10.0    0.029    0.035    0.214    0.223
 pw_grid_sort                         4  8.0    0.145    0.148    0.213    0.217
 abc_contract                    262690  9.0    0.148    0.194    0.148    0.194
 write_available_results              1  4.0    0.003    0.004    0.192    0.192
 dbcsr_copy                        5115  9.1    0.009    0.184    0.016    0.191
 mp_irecv_dm3                     18558 11.4    0.053    0.180    0.053    0.180
 reshape_mm_small                     8 13.5    0.001    0.001    0.152    0.170
 -------------------------------------------------------------------------------

 The number of warnings for this run is : 2
 
 -------------------------------------------------------------------------------
  **** **** ******  **  PROGRAM ENDED AT                 2026-02-18 13:03:07.604
 ***** ** ***  *** **   PROGRAM RAN ON                                    cn0712
 **    ****   ******    PROGRAM RAN BY                                  metdyn02
 ***** **    ** ** **   PROGRAM PROCESS ID                               3314004
  **** **  *******  **  PROGRAM STOPPED IN /scratch/hpc-prf-metdyn/metdyn02_Remi
                                           /05_Dyson_orbitals/cp2k/open/singleto
                                           pen/B3LYP
