SIRIUS 7.7.0, git hash: https://api.github.com/repos/electronic-structure/SIRIUS/git/ref/tags/v7.7.0
 DBCSR| CPU Multiplication driver                                           BLAS (U)
 DBCSR| Multrec recursion limit                                              512 (U)
 DBCSR| Multiplication stack size                                           1000 (D)
 DBCSR| Maximum elements for images                                    UNLIMITED (U)
 DBCSR| Multiplicative factor virtual images                                   1 (U)
 DBCSR| Use multiplication densification                                       T (D)
 DBCSR| Multiplication size stacks                                             3 (U)
 DBCSR| Use memory pool for CPU allocation                                     F (U)
 DBCSR| Number of 3D layers                                               SINGLE (U)
 DBCSR| Use MPI memory allocation                                              F (U)
 DBCSR| Use RMA algorithm                                                      F (U)
 DBCSR| Use Communication thread                                               T (U)
 DBCSR| Communication thread load                                              0 (D)
 DBCSR| MPI: My process id                                                     0
 DBCSR| MPI: Number of processes                                               8
 DBCSR| OMP: Current number of threads                                        24
 DBCSR| OMP: Max number of threads                                            24
 DBCSR| Split modifier for TAS multiplication algorithm                  1.0E+00 (U)


  **** **** ******  **  PROGRAM STARTED AT               2026-02-18 12:34:49.490
 ***** ** ***  *** **   PROGRAM STARTED ON                                cn0903
 **    ****   ******    PROGRAM STARTED BY                              metdyn02
 ***** **    ** ** **   PROGRAM PROCESS ID                                483948
  **** **  *******  **  PROGRAM STARTED IN /scratch/hpc-prf-metdyn/metdyn02_Remi
                                           /05_Dyson_orbitals/cp2k/open/singlet/
                                           B3LYP

 CP2K| version string:                 CP2K version 2025.2 (Development Version)
 CP2K| source code revision number:                                  git:2a4e9c4
 CP2K| cp2kflags: omp libint fftw3 libxc libgrpp elpa parallel scalapack mpi_f08
 CP2K|             cosma xsmm plumed2 spglib sirius libvori libbqb libvdwxc hdf5
 CP2K| is freely available from                            https://www.cp2k.org/
 CP2K| Program compiled at                      Fri Oct 24 04:52:17 PM CEST 2025
 CP2K| Program compiled on                                                login1
 CP2K| Program compiled for                                                local
 CP2K| Data directory path    /opt/software/pc2/EB-SW/software/CP2K/2025.2-foss-
 CP2K| Input file name                                                    GW.inp

 GLOBAL| Force Environment number                                              1
 GLOBAL| Basis set file name            /scratch/hpc-prf-metdyn/metdyn02_Remi/05
 GLOBAL| Potential file name            /pc2/groups/hpc-prf-metdyn/metdyn02_Remi
 GLOBAL| MM Potential file name                                     MM_POTENTIAL
 GLOBAL| Coordinate file name                                      __STD_INPUT__
 GLOBAL| Method name                                                        CP2K
 GLOBAL| Project name                                                       Open
 GLOBAL| Run type                                                         ENERGY
 GLOBAL| FFT library                                                       FFTW3
 GLOBAL| Diagonalization library                                            ELPA
 GLOBAL| Cholesky decomposition library                                ScaLAPACK
 GLOBAL| DGEMM library                                                      BLAS
 GLOBAL| Minimum number of eigenvectors for ELPA usage                        16
 GLOBAL| Orthonormality check for eigenvectors                          DISABLED
 GLOBAL| Matrix multiplication library                                     COSMA
 GLOBAL| All-to-all communication in single precision                          F
 GLOBAL| FFTs using library dependent lengths                                  F
 GLOBAL| Grid backend                                                       AUTO
 GLOBAL| Global print level                                               MEDIUM
 GLOBAL| MPI I/O enabled                                                       T
 GLOBAL| Total number of message passing processes                             8
 GLOBAL| Number of distributed systems (nodes)                                 1
 GLOBAL| Number of threads for this process                                   24
 GLOBAL| This output is from process                                           0
 GLOBAL| OpenMP stack size per thread (OMP_STACKSIZE)                    default
 GLOBAL| CPU model name                          AMD EPYC 9655 96-Core Processor
 GLOBAL| CPUID                                                              1003

 MEMORY| system memory details [Kb]
 MEMORY|                        rank 0           min           max       average
 MEMORY| MemTotal            791039088     791039088     791039088     791039088
 MEMORY| MemFree             755675732     755675732     755675732     755675732
 MEMORY| Buffers                  1080          1080          1080          1080
 MEMORY| Cached                6610056       6610056       6610056       6610056
 MEMORY| Slab                  3587268       3587268       3587268       3587268
 MEMORY| SReclaimable          1551332       1551332       1551332       1551332
 MEMORY| MemLikelyFree       763838200     763838200     763838200     763838200


 *** Fundamental physical constants (SI units) ***

 *** Literature: B. J. Mohr and B. N. Taylor,
 ***             CODATA recommended values of the fundamental physical
 ***             constants: 2006, Web Version 5.1
 ***             http://physics.nist.gov/constants

 Speed of light in vacuum [m/s]                             2.99792458000000E+08
 Magnetic constant or permeability of vacuum [N/A**2]       1.25663706143592E-06
 Electric constant or permittivity of vacuum [F/m]          8.85418781762039E-12
 Planck constant (h) [J*s]                                  6.62606896000000E-34
 Planck constant (h-bar) [J*s]                              1.05457162825177E-34
 Elementary charge [C]                                      1.60217648700000E-19
 Electron mass [kg]                                         9.10938215000000E-31
 Electron g factor [ ]                                     -2.00231930436220E+00
 Proton mass [kg]                                           1.67262163700000E-27
 Fine-structure constant                                    7.29735253760000E-03
 Rydberg constant [1/m]                                     1.09737315685270E+07
 Avogadro constant [1/mol]                                  6.02214179000000E+23
 Boltzmann constant [J/K]                                   1.38065040000000E-23
 Atomic mass unit [kg]                                      1.66053878200000E-27
 Bohr radius [m]                                            5.29177208590000E-11

 *** Conversion factors ***

 [u] -> [a.u.]                                              1.82288848426455E+03
 [Angstrom] -> [Bohr] = [a.u.]                              1.88972613288564E+00
 [a.u.] = [Bohr] -> [Angstrom]                              5.29177208590000E-01
 [a.u.] -> [s]                                              2.41888432650478E-17
 [a.u.] -> [fs]                                             2.41888432650478E-02
 [a.u.] -> [J]                                              4.35974393937059E-18
 [a.u.] -> [N]                                              8.23872205491840E-08
 [a.u.] -> [K]                                              3.15774647902944E+05
 [a.u.] -> [kJ/mol]                                         2.62549961709828E+03
 [a.u.] -> [kcal/mol]                                       6.27509468713739E+02
 [a.u.] -> [Pa]                                             2.94210107994716E+13
 [a.u.] -> [bar]                                            2.94210107994716E+08
 [a.u.] -> [atm]                                            2.90362800883016E+08
 [a.u.] -> [eV]                                             2.72113838565563E+01
 [a.u.] -> [Hz]                                             6.57968392072181E+15
 [a.u.] -> [1/cm] (wave numbers)                            2.19474631370540E+05
 [a.u./Bohr**2] -> [1/cm]                                   5.14048714338585E+03
 

 CELL_TOP| Volume [angstrom^3]:                                     27000.000000
 CELL_TOP| Vector a [angstrom    30.000     0.000     0.000   |a| =    30.000000
 CELL_TOP| Vector b [angstrom     0.000    30.000     0.000   |b| =    30.000000
 CELL_TOP| Vector c [angstrom     0.000     0.000    30.000   |c| =    30.000000
 CELL_TOP| Angle (b,c), alpha [degree]:                                90.000000
 CELL_TOP| Angle (a,c), beta  [degree]:                                90.000000
 CELL_TOP| Angle (a,b), gamma [degree]:                                90.000000
 CELL_TOP| Numerically orthorhombic:                                         YES
 CELL_TOP| Periodicity                                                      NONE

 GENERATE|  Preliminary Number of Bonds generated:                             0
 GENERATE|  Achieved consistency in connectivity generation.

 CELL| Volume [angstrom^3]:                                         27000.000000
 CELL| Vector a [angstrom]:      30.000     0.000     0.000   |a| =    30.000000
 CELL| Vector b [angstrom]:       0.000    30.000     0.000   |b| =    30.000000
 CELL| Vector c [angstrom]:       0.000     0.000    30.000   |c| =    30.000000
 CELL| Angle (b,c), alpha [degree]:                                    90.000000
 CELL| Angle (a,c), beta  [degree]:                                    90.000000
 CELL| Angle (a,b), gamma [degree]:                                    90.000000
 CELL| Numerically orthorhombic:                                             YES
 CELL| Periodicity                                                          NONE

 CELL_REF| Volume [angstrom^3]:                                     27000.000000
 CELL_REF| Vector a [angstrom    30.000     0.000     0.000   |a| =    30.000000
 CELL_REF| Vector b [angstrom     0.000    30.000     0.000   |b| =    30.000000
 CELL_REF| Vector c [angstrom     0.000     0.000    30.000   |c| =    30.000000
 CELL_REF| Angle (b,c), alpha [degree]:                                90.000000
 CELL_REF| Angle (a,c), beta  [degree]:                                90.000000
 CELL_REF| Angle (a,b), gamma [degree]:                                90.000000
 CELL_REF| Numerically orthorhombic:                                         YES
 CELL_REF| Periodicity                                                      NONE

 PW_GRID| Information for grid number                                          1
 PW_GRID| Cutoff [a.u.]                                                      3.5
 PW_GRID| spherical cutoff:                                                   NO
 PW_GRID|   Bounds   1              0      49                Points:          50
 PW_GRID|   Bounds   2              0      49                Points:          50
 PW_GRID|   Bounds   3              0      49                Points:          50
 PW_GRID| Volume element (a.u.^3)   1.458         Volume (a.u.^3)    182205.0337
 PW_GRID| Grid span                                                    HALFSPACE

 *******************************************************************************
 *******************************************************************************
 **                                                                           **
 **     #####                         ##              ##                      **
 **    ##   ##            ##          ##              ##                      **
 **   ##     ##                       ##            ######                    **
 **   ##     ##  ##   ##  ##   #####  ##  ##   ####   ##    #####    #####    **
 **   ##     ##  ##   ##  ##  ##      ## ##   ##      ##   ##   ##  ##   ##   **
 **   ##  ## ##  ##   ##  ##  ##      ####     ###    ##   ######   ######    **
 **    ##  ###   ##   ##  ##  ##      ## ##      ##   ##   ##       ##        **
 **     #######   #####   ##   #####  ##  ##  ####    ##    #####   ##        **
 **           ##                                                    ##        **
 **                                                                           **
 **                                                ... make the atoms dance   **
 **                                                                           **
 **            Copyright (C) by CP2K developers group (2000-2025)             **
 **                      J. Chem. Phys. 152, 194103 (2020)                    **
 **                                                                           **
 *******************************************************************************

 DFT| Spin restricted Kohn-Sham (RKS) calculation                            RKS
 DFT| Multiplicity                                                             1
 DFT| Number of spin states                                                    1
 DFT| Charge                                                                   0
 DFT| Self-interaction correction (SIC)                                       NO
 DFT| Cutoffs: density                                              1.000000E-08
 DFT|          gradient                                             1.000000E-08
 DFT|          tau                                                  1.000000E-10
 DFT|          cutoff_smoothing_range                               0.000000E+00
 DFT| XC density smoothing                                                  NONE
 DFT| XC derivatives                                                          PW

 FUNCTIONAL| BECKE88:
 FUNCTIONAL| A. Becke, Phys. Rev. A 38, 3098 (1988) {LDA version}               
 FUNCTIONAL| LYP:
 FUNCTIONAL| C. Lee, W. Yang, R.G. Parr, Phys. Rev. B, 37, 785 (1988) {LDA versi
 FUNCTIONAL| on}                                                                
 FUNCTIONAL| VWN:
 FUNCTIONAL| S. H. Vosko, L. Wilk and M. Nusair, Can. J. Phys. 58, 1200 (1980) {
 FUNCTIONAL| LDA version}                                                       
 FUNCTIONAL| XALPHA:
 FUNCTIONAL| Dirac/Slater local exchange; parameter=  0.666 {LDA}               


 QS| Method:                                                                GAPW
 QS| Density plane wave grid type                        NON-SPHERICAL FULLSPACE
 QS| Number of grid levels:                                                    4
 QS| Density cutoff [a.u.]:                                                500.0
 QS| Multi grid cutoff [a.u.]: 1) grid level                               500.0
 QS|                           2) grid level                               166.7
 QS|                           3) grid level                                55.6
 QS|                           4) grid level                                18.5
 QS| Grid level progression factor:                                          3.0
 QS| Relative density cutoff [a.u.]:                                        50.0
 QS| Interaction thresholds: eps_pgf_orb:                                1.0E-12
 QS|                         eps_filter_matrix:                          0.0E+00
 QS|                         eps_core_charge:                            1.0E-14
 QS|                         eps_rho_gspace:                             1.0E-12
 QS|                         eps_rho_rspace:                             1.0E-12
 QS|                         eps_gvg_rspace:                             1.0E-06
 QS|                         eps_ppl:                                    1.0E-02
 QS|                         eps_ppnl:                                   1.0E-08
 QS| GAPW|      One center basis from orbital basis primitives
 QS| GAPW|                   eps_fit:                                    1.0E-04
 QS| GAPW|                   eps_iso:                                    1.0E-12
 QS| GAPW|                   eps_svd:                                    1.0E-08
 QS| GAPW|                   eps_cpc:                                    1.0E-12
 QS| GAPW|   atom-r-grid: quadrature:                                     GC_LOG
 QS| GAPW|      atom-s-grid:  max l :                                          6
 QS| GAPW|      max_l_rho0 :                                                   2


 ATOMIC KIND INFORMATION

  1. Atomic kind: C                                     Number of atoms:      18

     Orbital Basis Set                                                 def2-TZVP

       Number of orbital shell sets:                                          11
       Number of orbital shells:                                              11
       Number of primitive Cartesian functions:                               20
       Number of Cartesian basis functions:                                   36
       Number of spherical basis functions:                                   31
       Norm type:                                                              2

       Normalised Cartesian orbitals:

                        Set   Shell   Orbital            Exponent    Coefficient

                          1       1    1s                0.095164       0.122114

                          2       1    1px               0.100568       0.080727
                          2       1    1py               0.100568       0.080727
                          2       1    1pz               0.100568       0.080727

                          3       1    1s                0.229728       0.236494

                          4       1    1px               0.288875       0.301876
                          4       1    1py               0.288875       0.301876
                          4       1    1pz               0.288875       0.301876

                          5       1    1dx2              0.318000       0.221644
                          5       1    1dxy              0.318000       0.383899
                          5       1    1dxz              0.318000       0.383899
                          5       1    1dy2              0.318000       0.221644
                          5       1    1dyz              0.318000       0.383899
                          5       1    1dz2              0.318000       0.221644

                          6       1    1s                0.576963       0.471815

                          7       1    1fx3              0.761000       0.796288
                          7       1    1fx2y             0.761000       1.780553
                          7       1    1fx2z             0.761000       1.780553
                          7       1    1fxy2             0.761000       1.780553
                          7       1    1fxyz             0.761000       3.084008
                          7       1    1fxz2             0.761000       1.780553
                          7       1    1fy3              0.761000       0.796288
                          7       1    1fy2z             0.761000       1.780553
                          7       1    1fyz2             0.761000       1.780553
                          7       1    1fz3              0.761000       0.796288

                          8       1    1px              34.697232       1.359665
                                                         7.958262       1.451259
                                                         2.378083       1.270923
                                                         0.814332       0.802572
                          8       1    1py              34.697232       1.359665
                                                         7.958262       1.451259
                                                         2.378083       1.270923
                                                         0.814332       0.802572
                          8       1    1pz              34.697232       1.359665
                                                         7.958262       1.451259
                                                         2.378083       1.270923
                                                         0.814332       0.802572

                          9       1    1dx2              1.097000       1.935401
                          9       1    1dxy              1.097000       3.352214
                          9       1    1dxz              1.097000       3.352214
                          9       1    1dy2              1.097000       1.935401
                          9       1    1dyz              1.097000       3.352214
                          9       1    1dz2              1.097000       1.935401

                         10       1    1s                6.206714       1.838354
                                                         2.576490       0.544758

                         11       1    1s            13575.349682       0.543591
                                                      2035.233368       1.014554
                                                       463.225624       1.731573
                                                       131.200196       2.691038
                                                        42.853016       3.604455
                                                        15.584186       3.702556

     RI Auxiliary Basis Set                                      def2-TZVP-RIFIT

       Number of orbital shell sets:                                          22
       Number of orbital shells:                                              22
       Number of primitive Cartesian functions:                               22
       Number of Cartesian basis functions:                                   86
       Number of spherical basis functions:                                   72
       Norm type:                                                              2

       Normalised Cartesian orbitals:

                        Set   Shell   Orbital            Exponent    Coefficient

                          1       1    1s                0.206828       0.218583

                          2       1    1px               0.237606       0.236462
                          2       1    1py               0.237606       0.236462
                          2       1    1pz               0.237606       0.236462

                          3       1    1dx2              0.257531       0.153236
                          3       1    1dxy              0.257531       0.265412
                          3       1    1dxz              0.257531       0.265412
                          3       1    1dy2              0.257531       0.153236
                          3       1    1dyz              0.257531       0.265412
                          3       1    1dz2              0.257531       0.153236

                          4       1    1s                0.405917       0.362442

                          5       1    1px               0.491713       0.586921
                          5       1    1py               0.491713       0.586921
                          5       1    1pz               0.491713       0.586921

                          6       1    1fx3              0.552898       0.388066
                          6       1    1fx2y             0.552898       0.867743
                          6       1    1fx2z             0.552898       0.867743
                          6       1    1fxy2             0.552898       0.867743
                          6       1    1fxyz             0.552898       1.502975
                          6       1    1fxz2             0.552898       0.867743
                          6       1    1fy3              0.552898       0.388066
                          6       1    1fy2z             0.552898       0.867743
                          6       1    1fyz2             0.552898       0.867743
                          6       1    1fz3              0.552898       0.388066

                          7       1    1dx2              0.587935       0.649734
                          7       1    1dxy              0.587935       1.125372
                          7       1    1dxz              0.587935       1.125372
                          7       1    1dy2              0.587935       0.649734
                          7       1    1dyz              0.587935       1.125372
                          7       1    1dz2              0.587935       0.649734

                          8       1    1s                1.074386       0.752108

                          9       1    1px               1.131808       1.664010
                          9       1    1py               1.131808       1.664010
                          9       1    1pz               1.131808       1.664010

                         10       1    1fx3              1.160680       2.058531
                         10       1    1fx2y             1.160680       4.603016
                         10       1    1fx2z             1.160680       4.603016
                         10       1    1fxy2             1.160680       4.603016
                         10       1    1fxyz             1.160680       7.972658
                         10       1    1fxz2             1.160680       4.603016
                         10       1    1fy3              1.160680       2.058531
                         10       1    1fy2z             1.160680       4.603016
                         10       1    1fyz2             1.160680       4.603016
                         10       1    1fz3              1.160680       2.058531

                         11       1    1dx2              1.415016       3.021634
                         11       1    1dxy              1.415016       5.233624
                         11       1    1dxz              1.415016       5.233624
                         11       1    1dy2              1.415016       3.021634
                         11       1    1dyz              1.415016       5.233624
                         11       1    1dz2              1.415016       3.021634

                         12       1    1fx3              2.387017      10.426283
                         12       1    1fx2y             2.387017      23.313877
                         12       1    1fx2z             2.387017      23.313877
                         12       1    1fxy2             2.387017      23.313877
                         12       1    1fxyz             2.387017      40.380819
                         12       1    1fxz2             2.387017      23.313877
                         12       1    1fy3              2.387017      10.426283
                         12       1    1fy2z             2.387017      23.313877
                         12       1    1fyz2             2.387017      23.313877
                         12       1    1fz3              2.387017      10.426283

                         13       1    1px               2.736198       5.016197
                         13       1    1py               2.736198       5.016197
                         13       1    1pz               2.736198       5.016197

                         14       1    1s                3.311579       1.749591

                         15       1    1dx2              3.411677      14.096240
                         15       1    1dxy              3.411677      24.415403
                         15       1    1dxz              3.411677      24.415403
                         15       1    1dy2              3.411677      14.096240
                         15       1    1dyz              3.411677      24.415403
                         15       1    1dz2              3.411677      14.096240

                         16       1    1px               6.379087      14.450678
                         16       1    1py               6.379087      14.450678
                         16       1    1pz               6.379087      14.450678

                         17       1    1dx2              9.067688      77.988119
                         17       1    1dxy              9.067688     135.079385
                         17       1    1dxz              9.067688     135.079385
                         17       1    1dy2              9.067688      77.988119
                         17       1    1dyz              9.067688     135.079385
                         17       1    1dz2              9.067688      77.988119

                         18       1    1s                9.433654       3.836366

                         19       1    1s               23.282845       7.554176

                         20       1    1px              24.794323      78.864291
                         20       1    1py              24.794323      78.864291
                         20       1    1pz              24.794323      78.864291

                         21       1    1s               59.862607      15.338285

                         22       1    1s              281.476933      48.977002

       Atomic covalent radius [Angstrom]:                                  0.770

       Atomic van der Waals radius [Angstrom]:                             1.700

     The atoms of this atomic kind are PAW atoms (GAPW):
       Hard Gaussian function radius:                                      1.512
       Rho0 radius:                                                        1.512
       Maximum GTO radius used for PAW projector construction:            24.566

     GAPW Soft Basis Set                                          def2-TZVP_soft

       Number of orbital shell sets:                                          11
       Number of orbital shells:                                              11
       Number of primitive Cartesian functions:                               11
       Number of Cartesian basis functions:                                   36
       Number of spherical basis functions:                                   31
       Norm type:                                                              2

       Normalised Cartesian orbitals:

                        Set   Shell   Orbital            Exponent    Coefficient

                          1       1    1s                0.095164       0.122114

                          2       1    1px               0.100568       0.080727
                          2       1    1py               0.100568       0.080727
                          2       1    1pz               0.100568       0.080727

                          3       1    1s                0.229728       0.236494

                          4       1    1px               0.288875       0.301876
                          4       1    1py               0.288875       0.301876
                          4       1    1pz               0.288875       0.301876

                          5       1    1dx2              0.318000       0.221644
                          5       1    1dxy              0.318000       0.383899
                          5       1    1dxz              0.318000       0.383899
                          5       1    1dy2              0.318000       0.221644
                          5       1    1dyz              0.318000       0.383899
                          5       1    1dz2              0.318000       0.221644

                          6       1    1s                0.576963       0.471815

                          7       1    1fx3              0.761000       0.796288
                          7       1    1fx2y             0.761000       1.780553
                          7       1    1fx2z             0.761000       1.780553
                          7       1    1fxy2             0.761000       1.780553
                          7       1    1fxyz             0.761000       3.084008
                          7       1    1fxz2             0.761000       1.780553
                          7       1    1fy3              0.761000       0.796288
                          7       1    1fy2z             0.761000       1.780553
                          7       1    1fyz2             0.761000       1.780553
                          7       1    1fz3              0.761000       0.796288

                          8       1    1px               2.378083       1.270923
                                                         0.814332       0.802572
                          8       1    1py               2.378083       1.270923
                                                         0.814332       0.802572
                          8       1    1pz               2.378083       1.270923
                                                         0.814332       0.802572

                          9       1    1dx2              1.097000       1.935401
                          9       1    1dxy              1.097000       3.352214
                          9       1    1dxz              1.097000       3.352214
                          9       1    1dy2              1.097000       1.935401
                          9       1    1dyz              1.097000       3.352214
                          9       1    1dz2              1.097000       1.935401

                         10       1    1s                2.576490       0.544758

                         11       1    1s         

     AE Potential information for                                            ALL

       Description:                                       All-electron potential
                                          Krack, Parrinello, PCCP 2, 2105 (2000)

       Gaussian exponent of the core charge distribution:               4.109048
       Electronic configuration (s p d ...):                           4   2   0

  2. Atomic kind: N                                     Number of atoms:       2

     Orbital Basis Set                                                 def2-TZVP

       Number of orbital shell sets:                                          11
       Number of orbital shells:                                              11
       Number of primitive Cartesian functions:                               20
       Number of Cartesian basis functions:                                   36
       Number of spherical basis functions:                                   31
       Norm type:                                                              2

       Normalised Cartesian orbitals:

                        Set   Shell   Orbital            Exponent    Coefficient

                          1       1    1s                0.136477       0.160031

                          2       1    1px               0.142608       0.124917
                          2       1    1py               0.142608       0.124917
                          2       1    1pz               0.142608       0.124917

                          3       1    1s                0.336471       0.314863

                          4       1    1px               0.416422       0.476823
                          4       1    1py               0.416422       0.476823
                          4       1    1pz               0.416422       0.476823

                          5       1    1dx2              0.469000       0.437484
                          5       1    1dxy              0.469000       0.757744
                          5       1    1dxz              0.469000       0.757744
                          5       1    1dy2              0.469000       0.437484
                          5       1    1dyz              0.469000       0.757744
                          5       1    1dz2              0.469000       0.437484

                          6       1    1s                0.846601       0.629027

                          7       1    1fx3              1.093000       1.798249
                          7       1    1fx2y             1.093000       4.021007
                          7       1    1fx2z             1.093000       4.021007
                          7       1    1fxy2             1.093000       4.021007
                          7       1    1fxyz             1.093000       6.964588
                          7       1    1fxz2             1.093000       4.021007
                          7       1    1fy3              1.093000       1.798249
                          7       1    1fy2z             1.093000       4.021007
                          7       1    1fyz2             1.093000       4.021007
                          7       1    1fz3              1.093000       1.798249

                          8       1    1px              49.200381       2.126481
                                                        11.346791       2.327937
                                                         3.427397       2.048573
                                                         1.178553       1.260732
                          8       1    1py              49.200381       2.126481
                                                        11.346791       2.327937
                                                         3.427397       2.048573
                                                         1.178553       1.260732
                          8       1    1pz              49.200381       2.126481
                                                        11.346791       2.327937
                                                         3.427397       2.048573
                                                         1.178553       1.260732

                          9       1    1dx2              1.654000       3.970513
                          9       1    1dxy              1.654000       6.877130
                          9       1    1dxz              1.654000       6.877130
                          9       1    1dy2              1.654000       3.970513
                          9       1    1dyz              1.654000       6.877130
                          9       1    1dz2              1.654000       3.970513

                         10       1    1s                8.979148       2.388068
                                                         3.686300       0.733788

                         11       1    1s            19730.800647       0.695604
                                                      2957.895874       1.298610
                                                       673.221336       2.219088
                                                       190.682495       3.463661
                                                        62.295442       4.696756
                                                        22.654161       4.952251

     RI Auxiliary Basis Set                                      def2-TZVP-RIFIT

       Number of orbital shell sets:                                          22
       Number of orbital shells:                                              22
       Number of primitive Cartesian functions:                               22
       Number of Cartesian basis functions:                                   86
       Number of spherical basis functions:                                   72
       Norm type:                                                              2

       Normalised Cartesian orbitals:

                        Set   Shell   Orbital            Exponent    Coefficient

                          1       1    1s                0.269072       0.266264

                          2       1    1px               0.335825       0.364403
                          2       1    1py               0.335825       0.364403
                          2       1    1pz               0.335825       0.364403

                          3       1    1dx2              0.350685       0.263035
                          3       1    1dxy              0.350685       0.455591
                          3       1    1dxz              0.350685       0.455591
                          3       1    1dy2              0.350685       0.263035
                          3       1    1dyz              0.350685       0.455591
                          3       1    1dz2              0.350685       0.263035

                          4       1    1s                0.637091       0.508231

                          5       1    1px               0.697694       0.908911
                          5       1    1py               0.697694       0.908911
                          5       1    1pz               0.697694       0.908911

                          6       1    1fx3              0.809476       0.914984
                          6       1    1fx2y             0.809476       2.045966
                          6       1    1fx2z             0.809476       2.045966
                          6       1    1fxy2             0.809476       2.045966
                          6       1    1fxyz             0.809476       3.543717
                          6       1    1fxz2             0.809476       2.045966
                          6       1    1fy3              0.809476       0.914984
                          6       1    1fy2z             0.809476       2.045966
                          6       1    1fyz2             0.809476       2.045966
                          6       1    1fz3              0.809476       0.914984

                          7       1    1dx2              0.859020       1.261582
                          7       1    1dxy              0.859020       2.185125
                          7       1    1dxz              0.859020       2.185125
                          7       1    1dy2              0.859020       1.261582
                          7       1    1dyz              0.859020       2.185125
                          7       1    1dz2              0.859020       1.261582

                          8       1    1s                1.372845       0.903912

                          9       1    1fx3              1.668650       4.658826
                          9       1    1fx2y             1.668650      10.417452
                          9       1    1fx2z             1.668650      10.417452
                          9       1    1fxy2             1.668650      10.417452
                          9       1    1fxyz             1.668650      18.043557
                          9       1    1fxz2             1.668650      10.417452
                          9       1    1fy3              1.668650       4.658826
                          9       1    1fy2z             1.668650      10.417452
                          9       1    1fyz2             1.668650      10.417452
                          9       1    1fz3              1.668650       4.658826

                         10       1    1px               1.675690       2.717580
                         10       1    1py               1.675690       2.717580
                         10       1    1pz               1.675690       2.717580

                         11       1    1dx2              2.091250       5.985769
                         11       1    1dxy              2.091250      10.367656
                         11       1    1dxz              2.091250      10.367656
                         11       1    1dy2              2.091250       5.985769
                         11       1    1dyz              2.091250      10.367656
                         11       1    1dz2              2.091250       5.985769

                         12       1    1fx3              3.468654      24.172222
                         12       1    1fx2y             3.468654      54.050731
                         12       1    1fx2z             3.468654      54.050731
                         12       1    1fxy2             3.468654      54.050731
                         12       1    1fxyz             3.468654      93.618612
                         12       1    1fxz2             3.468654      54.050731
                         12       1    1fy3              3.468654      24.172222
                         12       1    1fy2z             3.468654      54.050731
                         12       1    1fyz2             3.468654      54.050731
                         12       1    1fz3              3.468654      24.172222

                         13       1    1s                3.606548       1.865215

                         14       1    1px               3.969584       7.986774
                         14       1    1py               3.969584       7.986774
                         14       1    1pz               3.969584       7.986774

                         15       1    1dx2              5.029166      27.798888
                         15       1    1dxy              5.029166      48.149086
                         15       1    1dxz              5.029166      48.149086
                         15       1    1dy2              5.029166      27.798888
                         15       1    1dyz              5.029166      48.149086
                         15       1    1dz2              5.029166      27.798888

                         16       1    1px               8.669271      21.204025
                         16       1    1py               8.669271      21.204025
                         16       1    1pz               8.669271      21.204025

                         17       1    1s                9.067115       3.724020

                         18       1    1dx2             12.727173     141.153089
                         18       1    1dxy             12.727173     244.484323
                         18       1    1dxz             12.727173     244.484323
                         18       1    1dy2             12.727173     141.153089
                         18       1    1dyz             12.727173     244.484323
                         18       1    1dz2             12.727173     141.153089

                         19       1    1s               21.981132       7.235152

                         20       1    1px              34.121692     117.551530
                         20       1    1py              34.121692     117.551530
                         20       1    1pz              34.121692     117.551530

                         21       1    1s               62.030532      15.753034

                         22       1    1s              291.183943      50.238384

       Atomic covalent radius [Angstrom]:                                  0.750

       Atomic van der Waals radius [Angstrom]:                             1.550

     The atoms of this atomic kind are PAW atoms (GAPW):
       Hard Gaussian function radius:                                      1.512
       Rho0 radius:                                                        1.512
       Maximum GTO radius used for PAW projector construction:            24.566

     GAPW Soft Basis Set                                          def2-TZVP_soft

       Number of orbital shell sets:                                          11
       Number of orbital shells:                                              11
       Number of primitive Cartesian functions:                               11
       Number of Cartesian basis functions:                                   36
       Number of spherical basis functions:                                   31
       Norm type:                                                              2

       Normalised Cartesian orbitals:

                        Set   Shell   Orbital            Exponent    Coefficient

                          1       1    1s                0.136477       0.160031

                          2       1    1px               0.142608       0.124917
                          2       1    1py               0.142608       0.124917
                          2       1    1pz               0.142608       0.124917

                          3       1    1s                0.336471       0.314863

                          4       1    1px               0.416422       0.476823
                          4       1    1py               0.416422       0.476823
                          4       1    1pz               0.416422       0.476823

                          5       1    1dx2              0.469000       0.437484
                          5       1    1dxy              0.469000       0.757744
                          5       1    1dxz              0.469000       0.757744
                          5       1    1dy2              0.469000       0.437484
                          5       1    1dyz              0.469000       0.757744
                          5       1    1dz2              0.469000       0.437484

                          6       1    1s                0.846601       0.629027

                          7       1    1fx3              1.093000       1.798249
                          7       1    1fx2y             1.093000       4.021007
                          7       1    1fx2z             1.093000       4.021007
                          7       1    1fxy2             1.093000       4.021007
                          7       1    1fxyz             1.093000       6.964588
                          7       1    1fxz2             1.093000       4.021007
                          7       1    1fy3              1.093000       1.798249
                          7       1    1fy2z             1.093000       4.021007
                          7       1    1fyz2             1.093000       4.021007
                          7       1    1fz3              1.093000       1.798249

                          8       1    1px               3.427397       2.048573
                                                         1.178553       1.260732
                          8       1    1py               3.427397       2.048573
                                                         1.178553       1.260732
                          8       1    1pz               3.427397       2.048573
                                                         1.178553       1.260732

                          9       1    1dx2              1.654000       3.970513
                          9       1    1dxy              1.654000       6.877130
                          9       1    1dxz              1.654000       6.877130
                          9       1    1dy2              1.654000       3.970513
                          9       1    1dyz              1.654000       6.877130
                          9       1    1dz2              1.654000       3.970513

                         10       1    1s                3.686300       0.733788

                         11       1    1s         

     AE Potential information for                                            ALL

       Description:                                       All-electron potential
                                          Krack, Parrinello, PCCP 2, 2105 (2000)

       Gaussian exponent of the core charge distribution:               5.979100
       Electronic configuration (s p d ...):                           4   3   0

  3. Atomic kind: H                                     Number of atoms:       8

     Orbital Basis Set                                                 def2-TZVP

       Number of orbital shell sets:                                           4
       Number of orbital shells:                                               4
       Number of primitive Cartesian functions:                                6
       Number of Cartesian basis functions:                                    6
       Number of spherical basis functions:                                    6
       Norm type:                                                              2

       Normalised Cartesian orbitals:

                        Set   Shell   Orbital            Exponent    Coefficient

                          1       1    1s                0.103072       0.129648

                          2       1    1s                0.327230       0.308355

                          3       1    1px               0.800000       1.078456
                          3       1    1py               0.800000       1.078456
                          3       1    1pz               0.800000       1.078456

                          4       1    1s               34.061341       0.255630
                                                         5.123575       0.461360
                                                         1.164663       0.681121

     RI Auxiliary Basis Set                                      def2-TZVP-RIFIT

       Number of orbital shell sets:                                           7
       Number of orbital shells:                                               7
       Number of primitive Cartesian functions:                                7
       Number of Cartesian basis functions:                                   13
       Number of spherical basis functions:                                   13
       Norm type:                                                              2

       Normalised Cartesian orbitals:

                        Set   Shell   Orbital            Exponent    Coefficient

                          1       1    1s                0.264481       0.262849

                          2       1    1s                0.595125       0.482910

                          3       1    1px               0.595224       0.745230
                          3       1    1py               0.595224       0.745230
                          3       1    1pz               0.595224       0.745230

                          4       1    1px               1.354038       2.081991
                          4       1    1py               1.354038       2.081991
                          4       1    1pz               1.354038       2.081991

                          5       1    1s                1.861107       1.135635

                          6       1    1px               2.452498       4.374727
                          6       1    1py               2.452498       4.374727
                          6       1    1pz               2.452498       4.374727

                          7       1    1s                9.335216       3.806303

       Atomic covalent radius [Angstrom]:                                  0.320

       Atomic van der Waals radius [Angstrom]:                             1.090

     The atoms of this atomic kind are PAW atoms (GAPW):
       Hard Gaussian function radius:                                      1.200
       Rho0 radius:                                                        1.200
       Maximum GTO radius used for PAW projector construction:            24.566

     GAPW Soft Basis Set                                          def2-TZVP_soft

       Number of orbital shell sets:                                           4
       Number of orbital shells:                                               4
       Number of primitive Cartesian functions:                                5
       Number of Cartesian basis functions:                                    6
       Number of spherical basis functions:                                    6
       Norm type:                                                              2

       Normalised Cartesian orbitals:

                        Set   Shell   Orbital            Exponent    Coefficient

                          1       1    1s                0.103072       0.129648

                          2       1    1s                0.327230       0.308355

                          3       1    1px               0.800000       1.078456
                          3       1    1py               0.800000       1.078456
                          3       1    1pz               0.800000       1.078456

                          4       1    1s                5.123575       0.461360
                                                         1.164663       0.681121

     AE Potential information for                                            ALL

       Description:                                       All-electron potential
                                          Krack, Parrinello, PCCP 2, 2105 (2000)

       Gaussian exponent of the core charge distribution:              12.500000
       Electronic configuration (s p d ...):                           1   0   0


 MOLECULE KIND INFORMATION


 All atoms are their own molecule, skipping detailed information


 TOTAL NUMBERS AND MAXIMUM NUMBERS

  Total number of            - Atomic kinds:                                   3
                             - Atoms:                                         28
                             - Shell sets:                                   252
                             - Shells:                                       252
                             - Primitive Cartesian functions:                448
                             - Cartesian basis functions:                    768
                             - Spherical basis functions:                    668

  Maximum angular momentum of the orbital basis functions:                     3


 MODULE QUICKSTEP: ATOMIC COORDINATES IN ANGSTROM

   Atom Kind Element         X             Y             Z       Z(eff)     Mass
      1    1 C     6     12.248669     18.202622     15.000019   6.0000  12.0107
      2    1 C     6     13.184750     19.187038     15.000015   6.0000  12.0107
      3    1 C     6     14.572726     19.012772     15.000007   6.0000  12.0107
      4    1 C     6     12.662966     16.839534     15.000011   6.0000  12.0107
      5    1 C     6     14.008852     16.571648     15.000007   6.0000  12.0107
      6    1 C     6     14.942277     17.639189     15.000005   6.0000  12.0107
      7    1 C     6     15.685891     19.859940     14.999999   6.0000  12.0107
      8    1 C     6     16.989543     19.478101     14.999986   6.0000  12.0107
      9    1 C     6     16.285343     17.184102     14.999996   6.0000  12.0107
     10    1 C     6     17.315127     18.091144     14.999986   6.0000  12.0107
     11    1 C     6     14.808268     15.339038     14.999994   6.0000  12.0107
     12    1 C     6     16.212311     15.716776     15.000005   6.0000  12.0107
     13    2 N     7     14.409135     14.101114     14.999989   7.0000  14.0067
     14    2 N     7     17.178698     14.846221     15.000007   7.0000  14.0067
     15    1 C     6     15.406123     13.162409     14.999993   6.0000  12.0107
     16    1 C     6     16.787289     13.533987     15.000003   6.0000  12.0107
     17    1 C     6     15.062895     11.795726     14.999988   6.0000  12.0107
     18    1 C     6     16.043458     10.833875     14.999994   6.0000  12.0107
     19    1 C     6     17.404355     11.199998     15.000004   6.0000  12.0107
     20    1 C     6     17.769931     12.524013     15.000008   6.0000  12.0107
     21    3 H     1     14.011817     11.538646     14.999983   1.0000   1.0079
     22    3 H     1     15.772314      9.785994     14.999993   1.0000   1.0079
     23    3 H     1     18.164669     10.429616     15.000006   1.0000   1.0079
     24    3 H     1     18.808110     12.829033     15.000016   1.0000   1.0079
     25    3 H     1     17.784370     20.214006     14.999979   1.0000   1.0079
     26    3 H     1     18.349289     17.772143     14.999980   1.0000   1.0079
     27    3 H     1     11.928489     16.044680     15.000007   1.0000   1.0079
     28    3 H     1     11.191890     18.440374     15.000021   1.0000   1.0079



 SCF PARAMETERS         Density guess:                                   RESTART
                        --------------------------------------------------------
                        max_scf:                                             500
                        max_scf_history:                                       0
                        max_diis:                                              4
                        --------------------------------------------------------
                        eps_scf:                                        1.00E-06
                        eps_scf_history:                                0.00E+00
                        eps_diis:                                       0.00E+00
                        eps_eigval:                                     1.00E-05
                        --------------------------------------------------------
                        level_shift [a.u.]:                             0.000000
                        --------------------------------------------------------
                        Outer loop SCF in use 
                        No variables optimised in outer loop
                        eps_scf                                         1.00E-06
                        max_scf                                               40
                        No outer loop optimization
                        step_size                                       5.00E-01

 PW_GRID| Information for grid number                                          2
 PW_GRID| Grid distributed over                                     8 processors
 PW_GRID| Real space group dimensions                                     8    1
 PW_GRID| the grid is blocked:                                                NO
 PW_GRID| Cutoff [a.u.]                                                    500.0
 PW_GRID| spherical cutoff:                                                   NO
 PW_GRID|   Bounds   1           -288     287                Points:         576
 PW_GRID|   Bounds   2           -288     287                Points:         576
 PW_GRID|   Bounds   3           -288     287                Points:         576
 PW_GRID| Volume element (a.u.^3)  0.9534E-03     Volume (a.u.^3)    182205.0337
 PW_GRID| Grid span                                                    FULLSPACE
 PW_GRID|   Distribution                         Average         Max         Min
 PW_GRID|   G-Vectors                         23887872.0    23887872    23887872
 PW_GRID|   G-Rays                               41472.0       41472       41472
 PW_GRID|   Real Space Points                 23887872.0    23887872    23887872

 PW_GRID| Information for grid number                                          3
 PW_GRID| Number of the reference grid                                         2
 PW_GRID| Grid distributed over                                     8 processors
 PW_GRID| Real space group dimensions                                     8    1
 PW_GRID| the grid is blocked:                                                NO
 PW_GRID| Cutoff [a.u.]                                                    166.7
 PW_GRID| spherical cutoff:                                                   NO
 PW_GRID|   Bounds   1           -180     179                Points:         360
 PW_GRID|   Bounds   2           -180     179                Points:         360
 PW_GRID|   Bounds   3           -180     179                Points:         360
 PW_GRID| Volume element (a.u.^3)  0.3905E-02     Volume (a.u.^3)    182205.0337
 PW_GRID| Grid span                                                    FULLSPACE
 PW_GRID|   Distribution                         Average         Max         Min
 PW_GRID|   G-Vectors                          5832000.0     5833080     5831280
 PW_GRID|   G-Rays                               16200.0       16203       16198
 PW_GRID|   Real Space Points                  5832000.0     5832000     5832000

 PW_GRID| Information for grid number                                          4
 PW_GRID| Number of the reference grid                                         2
 PW_GRID| Grid distributed over                                     8 processors
 PW_GRID| Real space group dimensions                                     8    1
 PW_GRID| the grid is blocked:                                                NO
 PW_GRID| Cutoff [a.u.]                                                     55.6
 PW_GRID| spherical cutoff:                                                   NO
 PW_GRID|   Bounds   1            -96      95                Points:         192
 PW_GRID|   Bounds   2            -96      95                Points:         192
 PW_GRID|   Bounds   3            -96      95                Points:         192
 PW_GRID| Volume element (a.u.^3)  0.2574E-01     Volume (a.u.^3)    182205.0337
 PW_GRID| Grid span                                                    FULLSPACE
 PW_GRID|   Distribution                         Average         Max         Min
 PW_GRID|   G-Vectors                           884736.0      884928      884544
 PW_GRID|   G-Rays                                4608.0        4609        4607
 PW_GRID|   Real Space Points                   884736.0      884736      884736

 PW_GRID| Information for grid number                                          5
 PW_GRID| Number of the reference grid                                         2
 PW_GRID| Grid distributed over                                     8 processors
 PW_GRID| Real space group dimensions                                     8    1
 PW_GRID| the grid is blocked:                                                NO
 PW_GRID| Cutoff [a.u.]                                                     18.5
 PW_GRID| spherical cutoff:                                                   NO
 PW_GRID|   Bounds   1            -60      59                Points:         120
 PW_GRID|   Bounds   2            -60      59                Points:         120
 PW_GRID|   Bounds   3            -60      59                Points:         120
 PW_GRID| Volume element (a.u.^3)  0.1054         Volume (a.u.^3)    182205.0337
 PW_GRID| Grid span                                                    FULLSPACE
 PW_GRID|   Distribution                         Average         Max         Min
 PW_GRID|   G-Vectors                           216000.0      216360      215760
 PW_GRID|   G-Rays                                1800.0        1803        1798
 PW_GRID|   Real Space Points                   216000.0      216000      216000

 POISSON| Solver                                             MULTIPOLE (Bloechl)
 POISSON| Periodicity                                                       NONE

 RS_GRID| Information for grid number                                          2
 RS_GRID|   Bounds   1           -288     287                Points:         576
 RS_GRID|   Bounds   2           -288     287                Points:         576
 RS_GRID|   Bounds   3           -288     287                Points:         576
 RS_GRID| Real space distribution over                                  2 groups
 RS_GRID| Real space distribution along direction                              2
 RS_GRID| Border size                                                         34
 RS_GRID| Real space distribution over                                  4 groups
 RS_GRID| Real space distribution along direction                              3
 RS_GRID| Border size                                                         34
 RS_GRID|   Distribution                         Average         Max         Min
 RS_GRID|   Planes                                 356.0         356         356
 RS_GRID|   Distribution                         Average         Max         Min
 RS_GRID|   Planes                                 212.0         212         212

 RS_GRID| Information for grid number                                          3
 RS_GRID|   Bounds   1           -180     179                Points:         360
 RS_GRID|   Bounds   2           -180     179                Points:         360
 RS_GRID|   Bounds   3           -180     179                Points:         360
 RS_GRID| Real space distribution over                                  2 groups
 RS_GRID| Real space distribution along direction                              2
 RS_GRID| Border size                                                         38
 RS_GRID| Real space distribution over                                  4 groups
 RS_GRID| Real space distribution along direction                              3
 RS_GRID| Border size                                                         38
 RS_GRID|   Distribution                         Average         Max         Min
 RS_GRID|   Planes                                 256.0         256         256
 RS_GRID|   Distribution                         Average         Max         Min
 RS_GRID|   Planes                                 166.0         166         166

 RS_GRID| Information for grid number                                          4
 RS_GRID|   Bounds   1            -96      95                Points:         192
 RS_GRID|   Bounds   2            -96      95                Points:         192
 RS_GRID|   Bounds   3            -96      95                Points:         192
 RS_GRID| Real space fully replicated
 RS_GRID| Group size                                                           1

 RS_GRID| Information for grid number                                          5
 RS_GRID|   Bounds   1            -60      59                Points:         120
 RS_GRID|   Bounds   2            -60      59                Points:         120
 RS_GRID|   Bounds   3            -60      59                Points:         120
 RS_GRID| Real space fully replicated
 RS_GRID| Group size                                                           1

  HFX_INFO| Replica ID:                                                        1
  HFX_INFO| FRACTION:                                               0.2000000000
  HFX_INFO| Interaction Potential:                                       COULOMB
  HFX_INFO| EPS_SCHWARZ:                                                 1.0E-10
  HFX_INFO| EPS_SCHWARZ_FORCES                                           1.0E-08
  HFX_INFO| EPS_STORAGE_SCALING:                                         1.0E+00
  HFX_INFO| NBINS:                                                            64
  HFX_INFO| BLOCK_SIZE:                                                        1
  HFX_INFO| Number of periodic shells considered:                           NONE
  HFX_INFO| Number of periodic cells considered:                            NONE

 
 RI-RPA| using GPW style
 

 Extrapolation method: initial_guess

 Number of electrons:                                                        130
 Number of occupied orbitals:                                                 65
 Number of molecular orbitals:                                                65

 Number of orbital functions:                                                668
 Number of independent orbital functions:                                    668


 SCF WAVEFUNCTION OPTIMIZATION

  ----------------------------------- OT ---------------------------------------
  Minimizer      : CG                  : conjugate gradient
  Preconditioner : FULL_ALL            : diagonalization, state selective
  Precond_solver : DEFAULT
  Line search    : 2PNT                : 2 energies, one gradient
  stepsize       :    0.15000000                  energy_gap     :    0.08000000
  eps_taylor     :   0.10000E-15                  max_taylor     :             4
  ----------------------------------- OT ---------------------------------------

  Step     Update method      Time    Convergence         Total energy    Change
  ------------------------------------------------------------------------------
  Decoupling Energy:                                               0.0001632515

  HFX_MEM_INFO| Est. max. program size before HFX [MiB]:                   18399
  HFX_MEM_INFO| Number of cart. primitive ERI's calculated:          59446284735
  HFX_MEM_INFO| Number of sph. ERI's calculated:                     14543953605
  HFX_MEM_INFO| Number of sph. ERI's stored in-core:                 14543953605
  HFX_MEM_INFO| Number of sph. ERI's stored on disk:                           0
  HFX_MEM_INFO| Number of sph. ERI's calculated on the fly:                    0
  HFX_MEM_INFO| Total memory consumption ERI's RAM [MiB]:                  36881
  HFX_MEM_INFO| Whereof max-vals [MiB]:                                      152
  HFX_MEM_INFO| Total compression factor ERI's RAM:                         3.01
  HFX_MEM_INFO| Total memory consumption ERI's disk [MiB]:                     0
  HFX_MEM_INFO| Total compression factor ERI's disk:                        0.00
  HFX_MEM_INFO| Size of density/Fock matrix [MiB]:                             2
  HFX_MEM_INFO| Size of buffers [MiB]:                                         1
  HFX_MEM_INFO| Est. max. program size after HFX  [MiB]:                   24873

     1 OT CG       0.15E+00    9.8     0.05717111      -773.1758365655 -7.73E+02
  Decoupling Energy:                                              -0.0000154164
     - OT LS       0.28E+00    3.4                     -788.7305582947
  Decoupling Energy:                                              -0.0000584160
     2 OT CG       0.28E+00    5.0     0.04332140      -787.7740747419 -1.46E+01
  Decoupling Energy:                                               0.0004598008
     - OT LS       0.45E-01    3.4                     -774.9371966742
  Decoupling Energy:                                              -0.0000367054
     3 OT CG       0.45E-01    4.9     0.04294193      -788.2710599696 -4.97E-01
  Decoupling Energy:                                               0.0000011058
     - OT LS       0.18E+00    3.4                     -791.4979028864
  Decoupling Energy:                                               0.0001425617
     4 OT CG       0.18E+00    4.9     0.02472692      -794.9981215547 -6.73E+00
  Decoupling Energy:                                               0.0001532393
     - OT LS       0.15E+00    3.4                     -796.5472851670
  Decoupling Energy:                                               0.0001681495
     5 OT CG       0.15E+00    4.9     0.02046443      -796.6388997590 -1.64E+00
  Decoupling Energy:                                               0.0000276588
     - OT LS       0.15E+00    3.4                     -797.9777640168
  Decoupling Energy:                                               0.0000294858
     6 OT CG       0.15E+00    4.9     0.01276880      -797.9794714992 -1.34E+00
  Decoupling Energy:                                               0.0000064577
     - OT LS       0.22E+00    3.3                     -798.6622070283
  Decoupling Energy:                                              -0.0000000839
     7 OT CG       0.22E+00    5.0     0.01054153      -798.7052775355 -7.26E-01
  Decoupling Energy:                                               0.0000149708
     - OT LS       0.17E+00    3.3                     -799.0455217687
  Decoupling Energy:                                               0.0000074809
     8 OT CG       0.17E+00    5.0     0.00744707      -799.0812443503 -3.76E-01
  Decoupling Energy:                                               0.0000093674
     - OT LS       0.20E+00    3.3                     -799.3111957385
  Decoupling Energy:                                               0.0000098354
     9 OT CG       0.20E+00    4.9     0.00483464      -799.3153536615 -2.34E-01
  Decoupling Energy:                                               0.0000297835
     - OT LS       0.20E+00    3.3                     -799.4150400111
  Decoupling Energy:                                               0.0000298921
    10 OT CG       0.20E+00    5.0     0.00375606      -799.4150353573 -9.97E-02
  Decoupling Energy:                                               0.0000415906
     - OT LS       0.21E+00    3.4                     -799.4781020277
  Decoupling Energy:                                               0.0000423070
    11 OT CG       0.21E+00    4.9     0.00293162      -799.4782493722 -6.32E-02
  Decoupling Energy:                                               0.0000319033
     - OT LS       0.21E+00    3.3                     -799.5172457411
  Decoupling Energy:                                               0.0000317315
    12 OT CG       0.21E+00    4.9     0.00236546      -799.5172431008 -3.90E-02
  Decoupling Energy:                                               0.0000243093
     - OT LS       0.24E+00    3.3                     -799.5459102355
  Decoupling Energy:                                               0.0000230938
    13 OT CG       0.24E+00    4.9     0.00210775      -799.5463496518 -2.91E-02
  Decoupling Energy:                                               0.0000171230
     - OT LS       0.25E+00    3.3                     -799.5700775404
  Decoupling Energy:                                               0.0000169554
    14 OT CG       0.25E+00    5.0     0.00202238      -799.5700718357 -2.37E-02
  Decoupling Energy:                                               0.0000111768
     - OT LS       0.25E+00    3.4                     -799.5918374408
  Decoupling Energy:                                               0.0000111080
    15 OT CG       0.25E+00    5.0     0.00200527      -799.5918352728 -2.18E-02
  Decoupling Energy:                                               0.0000060957
     - OT LS       0.30E+00    3.3                     -799.6172867622
  Decoupling Energy:                                               0.0000057252
    16 OT CG       0.30E+00    4.9     0.00240071      -799.6175586490 -2.57E-02
  Decoupling Energy:                                               0.0000141030
     - OT LS       0.21E+00    3.4                     -799.6375504095
  Decoupling Energy:                                               0.0000091112
    17 OT CG       0.21E+00    5.0     0.00232700      -799.6436919212 -2.61E-02
  Decoupling Energy:                                               0.0000085015
     - OT LS       0.33E+00    3.4                     -799.6774725088
  Decoupling Energy:                                               0.0000091289
    18 OT CG       0.33E+00    5.0     0.00255965      -799.6824003080 -3.87E-02
  Decoupling Energy:                                               0.0000185653
     - OT LS       0.27E+00    3.3                     -799.7188181795
  Decoupling Energy:                                               0.0000161514
    19 OT CG       0.27E+00    5.0     0.00246840      -799.7219931846 -3.96E-02
  Decoupling Energy:                                               0.0000224719
     - OT LS       0.24E+00    3.4                     -799.7515201097
  Decoupling Energy:                                               0.0000210615
    20 OT CG       0.24E+00    4.9     0.00213867      -799.7523929812 -3.04E-02
  Decoupling Energy:                                               0.0000204438
     - OT LS       0.28E+00    3.3                     -799.7789318910
  Decoupling Energy:                                               0.0000204153
    21 OT CG       0.28E+00    4.9     0.00204454      -799.7796106478 -2.72E-02
  Decoupling Energy:                                               0.0000106715
     - OT LS       0.22E+00    3.4                     -799.7978485859
  Decoupling Energy:                                               0.0000122006
    22 OT CG       0.22E+00    4.9     0.00169429      -799.7994755675 -1.99E-02
  Decoupling Energy:                                               0.0000088572
     - OT LS       0.21E+00    3.4                     -799.8125576031
  Decoupling Energy:                                               0.0000089229
    23 OT CG       0.21E+00    4.9     0.00134060      -799.8125709092 -1.31E-02
[...]

 M. Guidon, F. Schiffmann, J. Hutter, J. VandeVondele.
 J. Chem. Phys. 128, 214104 (2008).
 Ab initio molecular dynamics using hybrid density functionals.
 https://doi.org/10.1063/1.2931945

 M. Frigo, S. G. Johnson.
 Proc. IEEE 93, 216-231 (2005).
 The design and implementation of FFTW3.
 https://doi.org/10.1109/JPROC.2004.840301

 J. VandeVondele, J. Hutter.
 J. Chem. Phys. 118, 4365-4369 (2003).
 An efficient orbital transformation method for electronic structure 
 calculations.
 https://doi.org/10.1063/1.1543154

 M. Krack, M. Parrinello.
 Phys. Chem. Chem. Phys. 2, 2105-2112 (2000).
 All-electron ab-initio molecular dynamics.
 https://doi.org/10.1039/b001167n

 G. Lippert, J. Hutter, M. Parrinello.
 Theor. Chem. Acc. 103, 124-140 (1999).
 The Gaussian and augmented-plane-wave density functional method for ab initio 
 molecular dynamics simulations.
 https://doi.org/10.1007/s002140050523

 P. E. Blöchl.
 J. Chem. Phys. 103, 7422-7428 (1995).
 Electrostatic decoupling of periodic images of plane‐wave‐expanded 
 densities and derived atomic point charges.
 https://doi.org/10.1063/1.470314

 A. D. Becke.
 Phys. Rev. A 38, 3098-3100 (1988).
 Density-functional exchange-energy approximation with correct asymptotic 
 behavior.
 https://doi.org/10.1103/PhysRevA.38.3098

 C. T. Lee, W. T. Yang, R. G. Parr.
 Phys. Rev. B 37, 785-789 (1988).
 Development of the Colle-Salvetti correlation-energy formula into a functional 
 of the electron density.
 https://doi.org/10.1103/PhysRevB.37.785

 S. H. Vosko, L. Wilk, M. Nusair.
 Can. J. Phys. 58, 1200-1211 (1980).
 Accurate spin-dependent electron liquid correlation energies for local spin 
 density calculations: a critical analysis.
 https://doi.org/10.1139/p80-159


 -------------------------------------------------------------------------------
 -                                                                             -
 -                                T I M I N G                                  -
 -                                                                             -
 -------------------------------------------------------------------------------
 SUBROUTINE                       CALLS  ASD         SELF TIME        TOTAL TIME
                                MAXIMUM       AVERAGE  MAXIMUM  AVERAGE  MAXIMUM
 CP2K                                 1  1.0    0.121    0.126 2600.192 2600.196
 qs_energies                          1  2.0    0.001    0.006 2596.386 2596.412
 scf_env_do_scf                       1  3.0    0.001    0.001 2464.622 2464.626
 scf_env_do_scf_inner_loop          591  4.0    0.012    0.027 2454.832 2454.835
 qs_ks_build_kohn_sham_matrix       592  7.0    0.105    0.110 1781.513 1781.540
 qs_ks_update_qs_env                592  5.0    0.003    0.004 1779.650 1779.677
 rebuild_ks_matrix                  591  6.0    0.001    0.002 1779.587 1779.613
 fft_wrap_pw1pw2                   8094 10.0    0.159    0.189 1177.541 1184.417
 fft_wrap_pw1pw2_500               5367 11.6   67.857   71.782 1128.794 1135.748
 fft3d_ps                          8094 12.0  576.798  582.788  890.916  898.490
 qs_vxc_create                      592  8.0    0.008    0.010  824.469  825.630
 qs_rho_update_rho_low              592  5.0    0.008    0.009  674.752  674.756
 calculate_rho_elec                 592  6.0   25.294   25.401  672.889  672.893
 xc_pw_derive                      2661 11.0    0.025    0.028  644.749  650.465
 xc_rho_set_and_dset_create         591 10.0   20.604   22.747  538.283  551.026
 xc_vxc_pw_create                   296  9.0   15.785   16.291  542.858  544.016
 density_rs2pw                      592  7.0    0.028    0.032  374.798  377.942
 hfx_ks_matrix                      592  8.0    0.011    0.012  291.108  291.170
 integrate_four_center              592  9.0   11.167   11.695  290.992  291.052
 xc_exc_calc                        295  9.0   14.738   15.016  281.603  281.604
 integrate_four_center_main         592 10.0    1.244    1.827  275.121  276.943
 integrate_four_center_bin        36891 11.0  273.877  275.612  273.877  275.612
 grid_collocate_task_list           592  7.0  270.396  274.767  270.396  274.767
 xc_pw_divergence                   296 10.0    0.008    0.009  246.244  251.668
 mp_alltoall_z22v                  8094 14.0  206.536  215.958  206.536  215.958
 prepare_gapw_den                   592  8.0    0.007    0.008  197.117  197.273
 put_rho0_on_grid                   592  9.0   25.232   25.410  191.135  191.291
 x_to_yz                           3869 13.8   70.756   74.544  184.475  186.204
 transfer_rs2pw                    3041  8.4    0.056    0.067  151.793  155.414
 yz_to_x                           4225 12.3   36.719   37.434  129.536  136.914
 qs_ks_ddapc                        592  8.0    0.011    0.012  129.998  130.653
 sum_up_and_integrate               297  8.0    0.005    0.006  130.620  130.651
 integrate_v_rspace                 297  9.0    0.008    0.009  128.164  128.473
 potential_pw2rs                    297 10.0    0.988    1.039  124.767  125.074
 transfer_pw2rs                    1781 10.3    0.033    0.039  117.663  118.634
 mp_waitany                       36048 11.2  111.979  115.904  111.979  115.904
 transfer_rs2pw_500                1205 10.0   36.563   38.264  106.671  111.069
 pw_poisson_solve                   592  8.0    0.009    0.011  108.407  108.771
 transfer_pw2rs_500                 890 10.7   33.106   34.842   97.051   98.365
 pw_scatter_p                      3869 12.8   96.355   97.537   96.355   97.537
 pw_integral_ab_c1d_c1d_gs         1184  9.5   87.652   88.594   88.985   89.204
 integrate_vhg0_rspace              592  8.0    1.440    1.652   76.334   76.385
 pw_gather_p                       4225 11.3   75.277   76.274   75.277   76.274
 scf_post_calculation_gpw             1  3.0    0.000    0.000   72.952   72.952
 pw_derive                         4437 11.2   72.276   72.817   72.276   72.817
 pw_copy                           9177 10.4   68.689   69.436   68.689   69.436
 mp2_main                             1  3.0    0.000    0.000   57.320   57.349
 pw_to_cube                          20  5.0   51.763   52.658   55.340   55.921
 cp_ddapc_apply_CD                  592  9.0    0.025    0.051   55.361   55.765
 mp2_gpw_main                         1  4.0    0.002    0.002   54.916   54.921
 pw_poisson_set                     593  9.0    0.017    0.020   47.074   47.438
 rpa_ri_compute_en                    1  5.0    0.000    0.000   47.393   47.393
 rpa_num_int                          1  6.0    0.007    0.007   47.044   47.045
 xc_functional_eval               26004 10.1    0.037    0.045   29.087   39.299
 fft_wrap_pw1pw2_170                909 10.0    2.919    3.116   38.560   38.902
 qs_scf_post_unocc_cubes              1  4.0    0.399    0.875   34.626   34.626
 qs_scf_post_occ_cubes                1  4.0    0.346    0.746   34.503   34.503
 rpa_num_int_RPA_matrix_operati     100  7.0    0.002    0.004   30.838   32.124
 transfer_rs2pw_170                 612  9.0    6.113    6.331   29.513   31.107
 mp_isend_dm3                     12016 11.2   27.932   29.294   27.932   29.294
 pw_copy_to_array                  4225 11.3   26.606   27.318   26.606   27.318
 pw_axpy                           4530  8.8   25.264   25.653   25.264   25.653
 mp_sum_d                         33140 10.9   16.311   22.625   16.311   22.625
 parallel_gemm_fm_cosma             282  9.0   17.669   18.585   17.669   18.585
 pw_copy_from_array                3869 12.8   16.909   18.180   16.909   18.180
 compute_Erpa_by_freq_int           100  8.0    0.109    0.121   16.845   17.555
 cp_fm_cholesky_decompose           111  8.8   16.805   17.494   16.805   17.494
 mp_isend_dv                     114128 13.0   16.160   16.862   16.160   16.862
 compute_GW_self_energy             100  7.0    0.125    0.131   15.578   16.003
 transfer_pw2rs_170                 297 12.0    3.759    3.814   15.286   15.680
 transfer_rs2pw_60                  612  9.0    5.352    5.541   13.947   14.723
 xb88_lda_eval                     6501 11.1   12.788   14.593   12.788   14.593
 calc_mat_Q                         100  8.0    0.000    0.001   13.958   14.549
 vwn_lda_eval                      6501 11.1   11.205   14.336   11.205   14.336
 contract_S_to_Q                    100  9.0    0.001    0.001   13.608   14.206
 rs_grid_zero                      2452 10.6   13.743   14.105   13.743   14.105
 pw_zero                           3292 10.2   13.148   13.509   13.148   13.509
 calculate_wavefunction              20  5.0    0.072    0.089   13.044   13.088
 collocate_function                  20  6.0    0.054    0.060   12.972   13.013
 dbcsr_multiply_generic           13819  9.2    0.262    0.273   12.116   12.245
 qs_scf_new_mos                     591  5.0    0.003    0.003   11.118   11.129
 qs_scf_loop_do_ot                  591  6.0    0.003    0.003   11.115   11.126
 ot_scf_mini                        591  7.0    0.007    0.007   10.510   10.530
 mp_waitall_1                    561882 13.5    7.854   10.526    7.854   10.526
 mp_sendrecv_dv                    8568 10.0    9.286   10.170    9.286   10.170
 init_scf_loop                        1  4.0    0.000    0.000    9.789    9.789
 mp_sync                           4077 10.9    4.856    8.364    4.856    8.364
 fft_wrap_pw1pw2_60                 909 10.0    0.391    0.410    7.892    8.175
 get_ddapc                          592 10.0    0.015    0.016    7.622    8.028
 lyp_lda_eval                      6501 11.1    3.568    7.828    3.568    7.828
 mp2_ri_gpw_compute_in                1  5.0    0.004    0.007    7.510    7.511
 cp_fm_cholesky_invert              100  8.0    7.126    7.392    7.126    7.392
 mp2_ri_gpw_compute_in_loop           1  6.0    0.001    0.001    7.318    7.318
 compute_GW_self_energy_deep        100  8.0    2.034    2.198    6.233    6.749
 calculate_vxc_atom                 592  8.0    1.566    2.360    6.537    6.541
 make_m2s                         27638 10.2    0.125    0.130    5.755    6.119
 mp2_eri_3c_integrate                 1  7.0    0.503    0.683    5.624    5.740
 ot_mini                            890  7.3    0.003    0.003    5.668    5.703
 qs_ot_get_p                        899  7.3    0.003    0.003    5.618    5.662
 pw_multiply_with                   592  9.0    5.458    5.487    5.458    5.487
 integrate_set_3c               2259134  8.0    3.624    3.736    5.121    5.280
 mp_irecv_dm3                     12016 11.2    2.710    5.227    2.710    5.227
 make_images                      27638 11.2    1.342    1.433    4.264    5.045
 qs_ot_get_derivative               446  8.3    0.002    0.003    4.795    4.805
 transfer_pw2rs_60                  297 12.0    1.246    1.426    4.470    4.687
 mp_sum_dm                        49735  7.7    2.970    4.090    2.970    4.090
 update_ks_atom                     592  8.0    0.403    0.425    4.031    4.054
 calculate_rho_atom                1776  9.0    2.720    3.696    2.720    3.696
 mp_bcast_dm                      34052  9.1    3.645    3.652    3.645    3.652
 modify_hartree_pot                 592 10.0    3.484    3.538    3.484    3.538
 make_lumo_gpw                        1  4.0    0.000    0.000    3.510    3.510
 ot_eigensolver                       1  5.0    0.002    0.002    3.506    3.506
 gaVxcgb_GC                        1480  9.0    2.210    3.479    2.210    3.479
 qs_init_subsys                       1  2.0    0.078    0.080    3.460    3.461
 qs_env_setup                         1  3.0    0.002    0.002    3.369    3.369
 qs_env_rebuild_pw_env                2  3.5    0.000    0.000    3.366    3.366
 pw_env_rebuild                       1  5.0    0.002    0.002    3.366    3.366
 pw_grid_setup                        5  5.2    0.002    0.002    3.364    3.364
 pw_grid_setup_internal               5  6.2    0.037    0.037    3.362    3.362
 grid_integrate_task_list           297 10.0    2.700    3.299    2.700    3.299
 pw_grid_sort                         5  7.2    2.096    2.103    3.079    3.093
 multiply_cannon                  13819 10.2    0.541    0.565    2.797    3.092
 qs_ot_get_derivative_diag          364  9.6    0.004    0.005    3.050    3.061
 qs_ot_p2m_diag                     742  8.6    0.023    0.032    2.922    2.943
 mp_file_write_all_chv               20  6.0    2.305    2.885    2.305    2.885
 pw_scale                          1185  9.7    2.403    2.515    2.403    2.515
 xalpha_lda_eval                   6501 11.1    1.489    2.506    1.489    2.506
 calculate_rho0_atom               1776  9.0    2.323    2.421    2.323    2.421
 fft_wrap_pw1pw2_20                 909 10.0    0.151    0.158    2.136    2.279
 make_images_sizes                27638 12.2    0.012    0.013    1.166    2.069
 mp_alltoall_i44                  27638 13.2    1.154    2.057    1.154    2.057
 dbcsr_iterator_start            255033 13.0    1.251    1.784    1.344    1.980
 dbcsr_make_dense_low             45360 12.3    0.100    0.111    1.222    1.959
 compute_vec_Sigma_x_minus_vxc_       1  4.0    0.000    0.000    1.937    1.937
 calculate_rho_atom_coeff           592  6.0    1.241    1.362    1.855    1.856
 mp_isendrecv_dv                  12446 11.7    1.581    1.829    1.581    1.829
 make_dense_data                  45360 13.3    0.255    0.369    1.069    1.797
 cp_dbcsr_syevd                     744  9.6    0.027    0.029    1.741    1.769
 arnoldi_extremal                   899  8.3    0.007    0.007    1.656    1.689
 transfer_rs2pw_20                  612  9.0    0.915    1.003    1.606    1.681
 arnoldi_normal_ev                  899  9.3    0.012    0.014    1.648    1.681
 mp_file_set_view_chv                20  6.0    1.036    1.620    1.036    1.620
 dbcsr_make_images_dense          22976 11.5    0.069    0.075    1.069    1.613
 mp_sum_dv                        81334 13.0    1.227    1.608    1.227    1.608
 qs_ot_get_orbitals                 898  7.3    0.002    0.002    1.553    1.571
 abc_contract                   2259134  9.0    1.496    1.544    1.496    1.544
 mp_alltoall_d11v                 12733 11.8    0.825    1.536    0.825    1.536
 multiply_cannon_loop             13819 11.2    0.357    0.361    1.467    1.504
 mp_sum_l                         64504 10.3    0.942    1.408    0.942    1.408
 rs_gather_matrices                 297 10.0    0.028    0.042    0.688    1.403
 cp_fm_diag_elpa                    627 10.8    0.001    0.002    1.391    1.397
 init_scf_run                         1  3.0    0.001    0.001    1.392    1.392
 scf_env_initial_rho_setup            1  4.0    0.000    0.000    1.391    1.391
 cp_fm_diag_elpa_base               627 11.8    1.297    1.315    1.347    1.347
 cp_fm_uplo_to_full                 745 12.1    0.810    1.240    0.810    1.240
 build_subspace                     899 10.3    0.032    0.034    1.206    1.211
 xc_pw_smooth                       296 10.0    0.001    0.001    1.110    1.210
 dbcsr_matrix_vector_mult         20142 11.9    0.064    0.072    1.100    1.158
 dbcsr_finalize                   22856 10.7    0.140    0.176    0.980    1.098
 get_ddapc-charges                  592 11.0    0.008    0.008    1.079    1.079
 build_b_vector                     592 12.0    1.048    1.063    1.048    1.063
 sort_shells                          5  8.2    0.982    0.992    0.982    0.992
 make_images_data                 27638 12.2    0.099    0.107    0.880    0.964
 Vh_1c_gg_integrals                 592  8.0    0.582    0.910    0.931    0.944
 contract_B_L                         2  7.0    0.022    0.025    0.617    0.904
 transfer_pw2rs_20                  297 12.0    0.388    0.496    0.823    0.864
 dbcsr_iterator_stop             255033 13.0    0.557    0.791    0.583    0.819
 ot_new_cg_direction                446  8.3    0.002    0.002    0.782    0.782
 multiply_cannon_multrec          52960 12.2    0.633    0.737    0.667    0.775
 hybrid_alltoall_any              28927 13.1    0.368    0.413    0.696    0.763
 mp_allgather_i34                 13819 11.2    0.440    0.749    0.440    0.749
 powell_optimize                 833532 11.0    0.724    0.736    0.724    0.736
 calc_screening_functions             1 10.0    0.261    0.271    0.692    0.697
 apply_preconditioner_dbcsr         297 10.0    0.001    0.001    0.680    0.690
 apply_all                          297 11.0    0.003    0.004    0.679    0.689
 offload_free_buffer                600  8.9    0.673    0.681    0.673    0.681
 calculate_dm_sparse                592  7.0    0.001    0.001    0.606    0.640
 qs_ot_get_derivative_taylor         82  8.0    0.001    0.001    0.611    0.614
 dbcsr_make_dense                 10896 10.6    0.015    0.016    0.348    0.548
 integrate_four_center_getP         592 10.0    0.150    0.270    0.523    0.546
 mp_cart_create                    3140 10.1    0.237    0.528    0.240    0.531
 dbcsr_merge_all                  21033 11.6    0.398    0.437    0.485    0.528
 vxc_of_r_new                      5910  9.0    0.050    0.070    0.377    0.527
 dbcsr_make_undense               10896 10.6    0.090    0.134    0.311    0.511
 ao_to_mo_and_store_B_mult_1        193  7.0    0.000    0.000    0.472    0.481
 dbcsr_matrix_vector_mult_local   20142 12.9    0.317    0.339    0.465    0.478
 dbcsr_add_d                       4334  9.4    0.003    0.004    0.269    0.467
 dbcsr_add_anytype                 4334 10.4    0.032    0.051    0.265    0.463
 dbcsr_complete_redistribute       2149 10.7    0.059    0.065    0.431    0.457
 dbcsr_create_new                190839 11.9    0.337    0.345    0.438    0.451
 ao_to_mo_and_store_B_mult_gw_1     193  7.0    0.000    0.000    0.439    0.449
 dbcsr_data_new                  987955 12.2    0.364    0.438    0.364    0.438
 dbcsr_make_untransposed_blocks   16202 10.1    0.274    0.286    0.430    0.435
 copy_dbcsr_to_fm                  1288  9.4    0.008    0.009    0.415    0.425
 dbt_pgrid_create_expert             42 10.8    0.000    0.003    0.134    0.420
 dbt_total                            4  8.0    0.000    0.000    0.408    0.408
 make_images_pack                 27638 12.2    0.022    0.023    0.363    0.402
 calc_pair_dist_radii                 1 10.0    0.103    0.103    0.395    0.399
 dbcsr_work_destroy_all           63517 12.7    0.229    0.251    0.362    0.397
 multiply_cannon_metrocomm3       52960 12.2    0.038    0.038    0.226    0.388
 calc_fm_mat_S_rpa                  100  9.0    0.350    0.357    0.350    0.357
 create_integ_mat                     2  6.0    0.000    0.001    0.346    0.347
 dbt_contract                         2  9.0    0.000    0.000    0.334    0.335
 write_available_results              1  4.0    0.007    0.007    0.299    0.299
 write_mo_free_results                1  5.0    0.069    0.070    0.293    0.293
 integrate_four_center_dist_KS      592 10.0    0.109    0.116    0.284    0.288
 dbcsr_work_create                63517 11.7    0.172    0.191    0.257    0.283
 dbcsr_data_release             1494541 12.9    0.256    0.281    0.256    0.281
 mp_bcast_l                          20  6.0    0.235    0.269    0.235    0.269
 -------------------------------------------------------------------------------

 The number of warnings for this run is : 0
 
 -------------------------------------------------------------------------------
  **** **** ******  **  PROGRAM ENDED AT                 2026-02-18 13:18:12.546
 ***** ** ***  *** **   PROGRAM RAN ON                                    cn0903
 **    ****   ******    PROGRAM RAN BY                                  metdyn02
 ***** **    ** ** **   PROGRAM PROCESS ID                                483948
  **** **  *******  **  PROGRAM STOPPED IN /scratch/hpc-prf-metdyn/metdyn02_Remi
                                           /05_Dyson_orbitals/cp2k/open/singlet/
                                           B3LYP
