SIRIUS 7.7.0, git hash: https://api.github.com/repos/electronic-structure/SIRIUS/git/ref/tags/v7.7.0
 DBCSR| CPU Multiplication driver                                           BLAS (U)
 DBCSR| Multrec recursion limit                                              512 (U)
 DBCSR| Multiplication stack size                                           1000 (D)
 DBCSR| Maximum elements for images                                    UNLIMITED (U)
 DBCSR| Multiplicative factor virtual images                                   1 (U)
 DBCSR| Use multiplication densification                                       T (D)
 DBCSR| Multiplication size stacks                                             3 (U)
 DBCSR| Use memory pool for CPU allocation                                     F (U)
 DBCSR| Number of 3D layers                                               SINGLE (U)
 DBCSR| Use MPI memory allocation                                              F (U)
 DBCSR| Use RMA algorithm                                                      F (U)
 DBCSR| Use Communication thread                                               T (U)
 DBCSR| Communication thread load                                             75 (D)
 DBCSR| MPI: My process id                                                     0
 DBCSR| MPI: Number of processes                                              48
 DBCSR| OMP: Current number of threads                                         4
 DBCSR| OMP: Max number of threads                                             4
 DBCSR| Split modifier for TAS multiplication algorithm                  1.0E+00 (U)


  **** **** ******  **  PROGRAM STARTED AT               2026-02-18 12:38:49.688
 ***** ** ***  *** **   PROGRAM STARTED ON                                cn1226
 **    ****   ******    PROGRAM STARTED BY                              metdyn02
 ***** **    ** ** **   PROGRAM PROCESS ID                               3853061
  **** **  *******  **  PROGRAM STARTED IN /scratch/hpc-prf-metdyn/metdyn02_Remi
                                           /05_Dyson_orbitals/cp2k/closed/triple
                                           t/B3LYP

 CP2K| version string:                 CP2K version 2025.2 (Development Version)
 CP2K| source code revision number:                                  git:2a4e9c4
 CP2K| cp2kflags: omp libint fftw3 libxc libgrpp elpa parallel scalapack mpi_f08
 CP2K|             cosma xsmm plumed2 spglib sirius libvori libbqb libvdwxc hdf5
 CP2K| is freely available from                            https://www.cp2k.org/
 CP2K| Program compiled at                      Fri Oct 24 04:52:17 PM CEST 2025
 CP2K| Program compiled on                                                login1
 CP2K| Program compiled for                                                local
 CP2K| Data directory path    /opt/software/pc2/EB-SW/software/CP2K/2025.2-foss-
 CP2K| Input file name                                                    GW.inp

 GLOBAL| Force Environment number                                              1
 GLOBAL| Basis set file name            /scratch/hpc-prf-metdyn/metdyn02_Remi/05
 GLOBAL| Potential file name            /pc2/groups/hpc-prf-metdyn/metdyn02_Remi
 GLOBAL| MM Potential file name                                     MM_POTENTIAL
 GLOBAL| Coordinate file name                                      __STD_INPUT__
 GLOBAL| Method name                                                        CP2K
 GLOBAL| Project name                                                       Open
 GLOBAL| Run type                                                         ENERGY
 GLOBAL| FFT library                                                       FFTW3
 GLOBAL| Diagonalization library                                            ELPA
 GLOBAL| Cholesky decomposition library                                ScaLAPACK
 GLOBAL| DGEMM library                                                      BLAS
 GLOBAL| Minimum number of eigenvectors for ELPA usage                        16
 GLOBAL| Orthonormality check for eigenvectors                          DISABLED
 GLOBAL| Matrix multiplication library                                     COSMA
 GLOBAL| All-to-all communication in single precision                          F
 GLOBAL| FFTs using library dependent lengths                                  F
 GLOBAL| Grid backend                                                       AUTO
 GLOBAL| Global print level                                               MEDIUM
 GLOBAL| MPI I/O enabled                                                       T
 GLOBAL| Total number of message passing processes                            48
 GLOBAL| Number of distributed systems (nodes)                                 1
 GLOBAL| Number of threads for this process                                    4
 GLOBAL| This output is from process                                           0
 GLOBAL| OpenMP stack size per thread (OMP_STACKSIZE)                    default
 GLOBAL| CPU model name                          AMD EPYC 9655 96-Core Processor
 GLOBAL| CPUID                                                              1003

 MEMORY| system memory details [Kb]
 MEMORY|                        rank 0           min           max       average
 MEMORY| MemTotal            791039112     791039112     791039112     791039112
 MEMORY| MemFree             747851084     747851084     747851084     747851084
 MEMORY| Buffers                  1084          1084          1084          1084
 MEMORY| Cached                6288252       6288252       6288252       6288252
 MEMORY| Slab                  3044920       3044920       3044920       3044920
 MEMORY| SReclaimable          1099760       1099760       1099760       1099760
 MEMORY| MemLikelyFree       755240180     755240180     755240180     755240180


 *** Fundamental physical constants (SI units) ***

 *** Literature: B. J. Mohr and B. N. Taylor,
 ***             CODATA recommended values of the fundamental physical
 ***             constants: 2006, Web Version 5.1
 ***             http://physics.nist.gov/constants

 Speed of light in vacuum [m/s]                             2.99792458000000E+08
 Magnetic constant or permeability of vacuum [N/A**2]       1.25663706143592E-06
 Electric constant or permittivity of vacuum [F/m]          8.85418781762039E-12
 Planck constant (h) [J*s]                                  6.62606896000000E-34
 Planck constant (h-bar) [J*s]                              1.05457162825177E-34
 Elementary charge [C]                                      1.60217648700000E-19
 Electron mass [kg]                                         9.10938215000000E-31
 Electron g factor [ ]                                     -2.00231930436220E+00
 Proton mass [kg]                                           1.67262163700000E-27
 Fine-structure constant                                    7.29735253760000E-03
 Rydberg constant [1/m]                                     1.09737315685270E+07
 Avogadro constant [1/mol]                                  6.02214179000000E+23
 Boltzmann constant [J/K]                                   1.38065040000000E-23
 Atomic mass unit [kg]                                      1.66053878200000E-27
 Bohr radius [m]                                            5.29177208590000E-11

 *** Conversion factors ***

 [u] -> [a.u.]                                              1.82288848426455E+03
 [Angstrom] -> [Bohr] = [a.u.]                              1.88972613288564E+00
 [a.u.] = [Bohr] -> [Angstrom]                              5.29177208590000E-01
 [a.u.] -> [s]                                              2.41888432650478E-17
 [a.u.] -> [fs]                                             2.41888432650478E-02
 [a.u.] -> [J]                                              4.35974393937059E-18
 [a.u.] -> [N]                                              8.23872205491840E-08
 [a.u.] -> [K]                                              3.15774647902944E+05
 [a.u.] -> [kJ/mol]                                         2.62549961709828E+03
 [a.u.] -> [kcal/mol]                                       6.27509468713739E+02
 [a.u.] -> [Pa]                                             2.94210107994716E+13
 [a.u.] -> [bar]                                            2.94210107994716E+08
 [a.u.] -> [atm]                                            2.90362800883016E+08
 [a.u.] -> [eV]                                             2.72113838565563E+01
 [a.u.] -> [Hz]                                             6.57968392072181E+15
 [a.u.] -> [1/cm] (wave numbers)                            2.19474631370540E+05
 [a.u./Bohr**2] -> [1/cm]                                   5.14048714338585E+03
 

 CELL_TOP| Volume [angstrom^3]:                                     27000.000000
 CELL_TOP| Vector a [angstrom    30.000     0.000     0.000   |a| =    30.000000
 CELL_TOP| Vector b [angstrom     0.000    30.000     0.000   |b| =    30.000000
 CELL_TOP| Vector c [angstrom     0.000     0.000    30.000   |c| =    30.000000
 CELL_TOP| Angle (b,c), alpha [degree]:                                90.000000
 CELL_TOP| Angle (a,c), beta  [degree]:                                90.000000
 CELL_TOP| Angle (a,b), gamma [degree]:                                90.000000
 CELL_TOP| Numerically orthorhombic:                                         YES
 CELL_TOP| Periodicity                                                      NONE

 GENERATE|  Preliminary Number of Bonds generated:                             0
 GENERATE|  Achieved consistency in connectivity generation.

 CELL| Volume [angstrom^3]:                                         27000.000000
 CELL| Vector a [angstrom]:      30.000     0.000     0.000   |a| =    30.000000
 CELL| Vector b [angstrom]:       0.000    30.000     0.000   |b| =    30.000000
 CELL| Vector c [angstrom]:       0.000     0.000    30.000   |c| =    30.000000
 CELL| Angle (b,c), alpha [degree]:                                    90.000000
 CELL| Angle (a,c), beta  [degree]:                                    90.000000
 CELL| Angle (a,b), gamma [degree]:                                    90.000000
 CELL| Numerically orthorhombic:                                             YES
 CELL| Periodicity                                                          NONE

 CELL_REF| Volume [angstrom^3]:                                     27000.000000
 CELL_REF| Vector a [angstrom    30.000     0.000     0.000   |a| =    30.000000
 CELL_REF| Vector b [angstrom     0.000    30.000     0.000   |b| =    30.000000
 CELL_REF| Vector c [angstrom     0.000     0.000    30.000   |c| =    30.000000
 CELL_REF| Angle (b,c), alpha [degree]:                                90.000000
 CELL_REF| Angle (a,c), beta  [degree]:                                90.000000
 CELL_REF| Angle (a,b), gamma [degree]:                                90.000000
 CELL_REF| Numerically orthorhombic:                                         YES
 CELL_REF| Periodicity                                                      NONE

 *******************************************************************************
 *******************************************************************************
 **                                                                           **
 **     #####                         ##              ##                      **
 **    ##   ##            ##          ##              ##                      **
 **   ##     ##                       ##            ######                    **
 **   ##     ##  ##   ##  ##   #####  ##  ##   ####   ##    #####    #####    **
 **   ##     ##  ##   ##  ##  ##      ## ##   ##      ##   ##   ##  ##   ##   **
 **   ##  ## ##  ##   ##  ##  ##      ####     ###    ##   ######   ######    **
 **    ##  ###   ##   ##  ##  ##      ## ##      ##   ##   ##       ##        **
 **     #######   #####   ##   #####  ##  ##  ####    ##    #####   ##        **
 **           ##                                                    ##        **
 **                                                                           **
 **                                                ... make the atoms dance   **
 **                                                                           **
 **            Copyright (C) by CP2K developers group (2000-2025)             **
 **                      J. Chem. Phys. 152, 194103 (2020)                    **
 **                                                                           **
 *******************************************************************************

 DFT| Spin unrestricted (spin-polarized) Kohn-Sham calculation               UKS
 DFT| Multiplicity                                                             3
 DFT| Number of spin states                                                    2
 DFT| Charge                                                                   0
 DFT| Self-interaction correction (SIC)                                       NO
 DFT| Cutoffs: density                                              1.000000E-10
 DFT|          gradient                                             1.000000E-10
 DFT|          tau                                                  1.000000E-10
 DFT|          cutoff_smoothing_range                               0.000000E+00
 DFT| XC density smoothing                                                  NONE
 DFT| XC derivatives                                                          PW

 FUNCTIONAL| BECKE88:
 FUNCTIONAL| A. Becke, Phys. Rev. A 38, 3098 (1988) {LSD version}               
 FUNCTIONAL| LYP:
 FUNCTIONAL| C. Lee, W. Yang, R.G. Parr, Phys. Rev. B, 37, 785 (1988) {LSD versi
 FUNCTIONAL| on}                                                                
 FUNCTIONAL| VWN:
 FUNCTIONAL| S. H. Vosko, L. Wilk and M. Nusair, Can. J. Phys. 58, 1200 (1980) {
 FUNCTIONAL| LDA version}                                                       
 FUNCTIONAL| XALPHA:
 FUNCTIONAL| Dirac/Slater local exchange; parameter=  0.6667                    


 QS| Method:                                                                GAPW
 QS| Density plane wave grid type                        NON-SPHERICAL FULLSPACE
 QS| Number of grid levels:                                                    4
 QS| Density cutoff [a.u.]:                                                500.0
 QS| Multi grid cutoff [a.u.]: 1) grid level                               500.0
 QS|                           2) grid level                               166.7
 QS|                           3) grid level                                55.6
 QS|                           4) grid level                                18.5
 QS| Grid level progression factor:                                          3.0
 QS| Relative density cutoff [a.u.]:                                        50.0
 QS| Interaction thresholds: eps_pgf_orb:                                1.0E-12
 QS|                         eps_filter_matrix:                          0.0E+00
 QS|                         eps_core_charge:                            1.0E-14
 QS|                         eps_rho_gspace:                             1.0E-12
 QS|                         eps_rho_rspace:                             1.0E-12
 QS|                         eps_gvg_rspace:                             1.0E-06
 QS|                         eps_ppl:                                    1.0E-02
 QS|                         eps_ppnl:                                   1.0E-08
 QS| GAPW|      One center basis from orbital basis primitives
 QS| GAPW|                   eps_fit:                                    1.0E-04
 QS| GAPW|                   eps_iso:                                    1.0E-12
 QS| GAPW|                   eps_svd:                                    1.0E-08
 QS| GAPW|                   eps_cpc:                                    1.0E-12
 QS| GAPW|   atom-r-grid: quadrature:                                     GC_LOG
 QS| GAPW|      atom-s-grid:  max l :                                          6
 QS| GAPW|      max_l_rho0 :                                                   2


 ATOMIC KIND INFORMATION

  1. Atomic kind: C                                     Number of atoms:      18

     Orbital Basis Set                                                 def2-TZVP

       Number of orbital shell sets:                                          11
       Number of orbital shells:                                              11
       Number of primitive Cartesian functions:                               20
       Number of Cartesian basis functions:                                   36
       Number of spherical basis functions:                                   31
       Norm type:                                                              2

       Normalised Cartesian orbitals:

                        Set   Shell   Orbital            Exponent    Coefficient

                          1       1    1s                0.095164       0.122114

                          2       1    1px               0.100568       0.080727
                          2       1    1py               0.100568       0.080727
                          2       1    1pz               0.100568       0.080727

                          3       1    1s                0.229728       0.236494

                          4       1    1px               0.288875       0.301876
                          4       1    1py               0.288875       0.301876
                          4       1    1pz               0.288875       0.301876

                          5       1    1dx2              0.318000       0.221644
                          5       1    1dxy              0.318000       0.383899
                          5       1    1dxz              0.318000       0.383899
                          5       1    1dy2              0.318000       0.221644
                          5       1    1dyz              0.318000       0.383899
                          5       1    1dz2              0.318000       0.221644

                          6       1    1s                0.576963       0.471815

                          7       1    1fx3              0.761000       0.796288
                          7       1    1fx2y             0.761000       1.780553
                          7       1    1fx2z             0.761000       1.780553
                          7       1    1fxy2             0.761000       1.780553
                          7       1    1fxyz             0.761000       3.084008
                          7       1    1fxz2             0.761000       1.780553
                          7       1    1fy3              0.761000       0.796288
                          7       1    1fy2z             0.761000       1.780553
                          7       1    1fyz2             0.761000       1.780553
                          7       1    1fz3              0.761000       0.796288

                          8       1    1px              34.697232       1.359665
                                                         7.958262       1.451259
                                                         2.378083       1.270923
                                                         0.814332       0.802572
                          8       1    1py              34.697232       1.359665
                                                         7.958262       1.451259
                                                         2.378083       1.270923
                                                         0.814332       0.802572
                          8       1    1pz              34.697232       1.359665
                                                         7.958262       1.451259
                                                         2.378083       1.270923
                                                         0.814332       0.802572

                          9       1    1dx2              1.097000       1.935401
                          9       1    1dxy              1.097000       3.352214
                          9       1    1dxz              1.097000       3.352214
                          9       1    1dy2              1.097000       1.935401
                          9       1    1dyz              1.097000       3.352214
                          9       1    1dz2              1.097000       1.935401

                         10       1    1s                6.206714       1.838354
                                                         2.576490       0.544758

                         11       1    1s            13575.349682       0.543591
                                                      2035.233368       1.014554
                                                       463.225624       1.731573
                                                       131.200196       2.691038
                                                        42.853016       3.604455
                                                        15.584186       3.702556

     RI Auxiliary Basis Set                                      def2-TZVP-RIFIT

       Number of orbital shell sets:                                          22
       Number of orbital shells:                                              22
       Number of primitive Cartesian functions:                               22
       Number of Cartesian basis functions:                                   86
       Number of spherical basis functions:                                   72
       Norm type:                                                              2

       Normalised Cartesian orbitals:

                        Set   Shell   Orbital            Exponent    Coefficient

                          1       1    1s                0.206828       0.218583

                          2       1    1px               0.237606       0.236462
                          2       1    1py               0.237606       0.236462
                          2       1    1pz               0.237606       0.236462

                          3       1    1dx2              0.257531       0.153236
                          3       1    1dxy              0.257531       0.265412
                          3       1    1dxz              0.257531       0.265412
                          3       1    1dy2              0.257531       0.153236
                          3       1    1dyz              0.257531       0.265412
                          3       1    1dz2              0.257531       0.153236

                          4       1    1s                0.405917       0.362442

                          5       1    1px               0.491713       0.586921
                          5       1    1py               0.491713       0.586921
                          5       1    1pz               0.491713       0.586921

                          6       1    1fx3              0.552898       0.388066
                          6       1    1fx2y             0.552898       0.867743
                          6       1    1fx2z             0.552898       0.867743
                          6       1    1fxy2             0.552898       0.867743
                          6       1    1fxyz             0.552898       1.502975
                          6       1    1fxz2             0.552898       0.867743
                          6       1    1fy3              0.552898       0.388066
                          6       1    1fy2z             0.552898       0.867743
                          6       1    1fyz2             0.552898       0.867743
                          6       1    1fz3              0.552898       0.388066

                          7       1    1dx2              0.587935       0.649734
                          7       1    1dxy              0.587935       1.125372
                          7       1    1dxz              0.587935       1.125372
                          7       1    1dy2              0.587935       0.649734
                          7       1    1dyz              0.587935       1.125372
                          7       1    1dz2              0.587935       0.649734

                          8       1    1s                1.074386       0.752108

                          9       1    1px               1.131808       1.664010
                          9       1    1py               1.131808       1.664010
                          9       1    1pz               1.131808       1.664010

                         10       1    1fx3              1.160680       2.058531
                         10       1    1fx2y             1.160680       4.603016
                         10       1    1fx2z             1.160680       4.603016
                         10       1    1fxy2             1.160680       4.603016
                         10       1    1fxyz             1.160680       7.972658
                         10       1    1fxz2             1.160680       4.603016
                         10       1    1fy3              1.160680       2.058531
                         10       1    1fy2z             1.160680       4.603016
                         10       1    1fyz2             1.160680       4.603016
                         10       1    1fz3              1.160680       2.058531

                         11       1    1dx2              1.415016       3.021634
                         11       1    1dxy              1.415016       5.233624
                         11       1    1dxz              1.415016       5.233624
                         11       1    1dy2              1.415016       3.021634
                         11       1    1dyz              1.415016       5.233624
                         11       1    1dz2              1.415016       3.021634

                         12       1    1fx3              2.387017      10.426283
                         12       1    1fx2y             2.387017      23.313877
                         12       1    1fx2z             2.387017      23.313877
                         12       1    1fxy2             2.387017      23.313877
                         12       1    1fxyz             2.387017      40.380819
                         12       1    1fxz2             2.387017      23.313877
                         12       1    1fy3              2.387017      10.426283
                         12       1    1fy2z             2.387017      23.313877
                         12       1    1fyz2             2.387017      23.313877
                         12       1    1fz3              2.387017      10.426283

                         13       1    1px               2.736198       5.016197
                         13       1    1py               2.736198       5.016197
                         13       1    1pz               2.736198       5.016197

                         14       1    1s                3.311579       1.749591

                         15       1    1dx2              3.411677      14.096240
                         15       1    1dxy              3.411677      24.415403
                         15       1    1dxz              3.411677      24.415403
                         15       1    1dy2              3.411677      14.096240
                         15       1    1dyz              3.411677      24.415403
                         15       1    1dz2              3.411677      14.096240

                         16       1    1px               6.379087      14.450678
                         16       1    1py               6.379087      14.450678
                         16       1    1pz               6.379087      14.450678

                         17       1    1dx2              9.067688      77.988119
                         17       1    1dxy              9.067688     135.079385
                         17       1    1dxz              9.067688     135.079385
                         17       1    1dy2              9.067688      77.988119
                         17       1    1dyz              9.067688     135.079385
                         17       1    1dz2              9.067688      77.988119

                         18       1    1s                9.433654       3.836366

                         19       1    1s               23.282845       7.554176

                         20       1    1px              24.794323      78.864291
                         20       1    1py              24.794323      78.864291
                         20       1    1pz              24.794323      78.864291

                         21       1    1s               59.862607      15.338285

                         22       1    1s              281.476933      48.977002

       Atomic covalent radius [Angstrom]:                                  0.770

       Atomic van der Waals radius [Angstrom]:                             1.700

     The atoms of this atomic kind are PAW atoms (GAPW):
       Hard Gaussian function radius:                                      1.512
       Rho0 radius:                                                        1.512
       Maximum GTO radius used for PAW projector construction:            24.566

     GAPW Soft Basis Set                                          def2-TZVP_soft

       Number of orbital shell sets:                                          11
       Number of orbital shells:                                              11
       Number of primitive Cartesian functions:                               11
       Number of Cartesian basis functions:                                   36
       Number of spherical basis functions:                                   31
       Norm type:                                                              2

       Normalised Cartesian orbitals:

                        Set   Shell   Orbital            Exponent    Coefficient

                          1       1    1s                0.095164       0.122114

                          2       1    1px               0.100568       0.080727
                          2       1    1py               0.100568       0.080727
                          2       1    1pz               0.100568       0.080727

                          3       1    1s                0.229728       0.236494

                          4       1    1px               0.288875       0.301876
                          4       1    1py               0.288875       0.301876
                          4       1    1pz               0.288875       0.301876

                          5       1    1dx2              0.318000       0.221644
                          5       1    1dxy              0.318000       0.383899
                          5       1    1dxz              0.318000       0.383899
                          5       1    1dy2              0.318000       0.221644
                          5       1    1dyz              0.318000       0.383899
                          5       1    1dz2              0.318000       0.221644

                          6       1    1s                0.576963       0.471815

                          7       1    1fx3              0.761000       0.796288
                          7       1    1fx2y             0.761000       1.780553
                          7       1    1fx2z             0.761000       1.780553
                          7       1    1fxy2             0.761000       1.780553
                          7       1    1fxyz             0.761000       3.084008
                          7       1    1fxz2             0.761000       1.780553
                          7       1    1fy3              0.761000       0.796288
                          7       1    1fy2z             0.761000       1.780553
                          7       1    1fyz2             0.761000       1.780553
                          7       1    1fz3              0.761000       0.796288

                          8       1    1px               2.378083       1.270923
                                                         0.814332       0.802572
                          8       1    1py               2.378083       1.270923
                                                         0.814332       0.802572
                          8       1    1pz               2.378083       1.270923
                                                         0.814332       0.802572

                          9       1    1dx2              1.097000       1.935401
                          9       1    1dxy              1.097000       3.352214
                          9       1    1dxz              1.097000       3.352214
                          9       1    1dy2              1.097000       1.935401
                          9       1    1dyz              1.097000       3.352214
                          9       1    1dz2              1.097000       1.935401

                         10       1    1s                2.576490       0.544758

                         11       1    1s         

     AE Potential information for                                            ALL

       Description:                                       All-electron potential
                                          Krack, Parrinello, PCCP 2, 2105 (2000)

       Gaussian exponent of the core charge distribution:               4.109048
       Electronic configuration (s p d ...):                           4   2   0

  2. Atomic kind: N                                     Number of atoms:       2

     Orbital Basis Set                                                 def2-TZVP

       Number of orbital shell sets:                                          11
       Number of orbital shells:                                              11
       Number of primitive Cartesian functions:                               20
       Number of Cartesian basis functions:                                   36
       Number of spherical basis functions:                                   31
       Norm type:                                                              2

       Normalised Cartesian orbitals:

                        Set   Shell   Orbital            Exponent    Coefficient

                          1       1    1s                0.136477       0.160031

                          2       1    1px               0.142608       0.124917
                          2       1    1py               0.142608       0.124917
                          2       1    1pz               0.142608       0.124917

                          3       1    1s                0.336471       0.314863

                          4       1    1px               0.416422       0.476823
                          4       1    1py               0.416422       0.476823
                          4       1    1pz               0.416422       0.476823

                          5       1    1dx2              0.469000       0.437484
                          5       1    1dxy              0.469000       0.757744
                          5       1    1dxz              0.469000       0.757744
                          5       1    1dy2              0.469000       0.437484
                          5       1    1dyz              0.469000       0.757744
                          5       1    1dz2              0.469000       0.437484

                          6       1    1s                0.846601       0.629027

                          7       1    1fx3              1.093000       1.798249
                          7       1    1fx2y             1.093000       4.021007
                          7       1    1fx2z             1.093000       4.021007
                          7       1    1fxy2             1.093000       4.021007
                          7       1    1fxyz             1.093000       6.964588
                          7       1    1fxz2             1.093000       4.021007
                          7       1    1fy3              1.093000       1.798249
                          7       1    1fy2z             1.093000       4.021007
                          7       1    1fyz2             1.093000       4.021007
                          7       1    1fz3              1.093000       1.798249

                          8       1    1px              49.200381       2.126481
                                                        11.346791       2.327937
                                                         3.427397       2.048573
                                                         1.178553       1.260732
                          8       1    1py              49.200381       2.126481
                                                        11.346791       2.327937
                                                         3.427397       2.048573
                                                         1.178553       1.260732
                          8       1    1pz              49.200381       2.126481
                                                        11.346791       2.327937
                                                         3.427397       2.048573
                                                         1.178553       1.260732

                          9       1    1dx2              1.654000       3.970513
                          9       1    1dxy              1.654000       6.877130
                          9       1    1dxz              1.654000       6.877130
                          9       1    1dy2              1.654000       3.970513
                          9       1    1dyz              1.654000       6.877130
                          9       1    1dz2              1.654000       3.970513

                         10       1    1s                8.979148       2.388068
                                                         3.686300       0.733788

                         11       1    1s            19730.800647       0.695604
                                                      2957.895874       1.298610
                                                       673.221336       2.219088
                                                       190.682495       3.463661
                                                        62.295442       4.696756
                                                        22.654161       4.952251

     RI Auxiliary Basis Set                                      def2-TZVP-RIFIT

       Number of orbital shell sets:                                          22
       Number of orbital shells:                                              22
       Number of primitive Cartesian functions:                               22
       Number of Cartesian basis functions:                                   86
       Number of spherical basis functions:                                   72
       Norm type:                                                              2

       Normalised Cartesian orbitals:

                        Set   Shell   Orbital            Exponent    Coefficient

                          1       1    1s                0.269072       0.266264

                          2       1    1px               0.335825       0.364403
                          2       1    1py               0.335825       0.364403
                          2       1    1pz               0.335825       0.364403

                          3       1    1dx2              0.350685       0.263035
                          3       1    1dxy              0.350685       0.455591
                          3       1    1dxz              0.350685       0.455591
                          3       1    1dy2              0.350685       0.263035
                          3       1    1dyz              0.350685       0.455591
                          3       1    1dz2              0.350685       0.263035

                          4       1    1s                0.637091       0.508231

                          5       1    1px               0.697694       0.908911
                          5       1    1py               0.697694       0.908911
                          5       1    1pz               0.697694       0.908911

                          6       1    1fx3              0.809476       0.914984
                          6       1    1fx2y             0.809476       2.045966
                          6       1    1fx2z             0.809476       2.045966
                          6       1    1fxy2             0.809476       2.045966
                          6       1    1fxyz             0.809476       3.543717
                          6       1    1fxz2             0.809476       2.045966
                          6       1    1fy3              0.809476       0.914984
                          6       1    1fy2z             0.809476       2.045966
                          6       1    1fyz2             0.809476       2.045966
                          6       1    1fz3              0.809476       0.914984

                          7       1    1dx2              0.859020       1.261582
                          7       1    1dxy              0.859020       2.185125
                          7       1    1dxz              0.859020       2.185125
                          7       1    1dy2              0.859020       1.261582
                          7       1    1dyz              0.859020       2.185125
                          7       1    1dz2              0.859020       1.261582

                          8       1    1s                1.372845       0.903912

                          9       1    1fx3              1.668650       4.658826
                          9       1    1fx2y             1.668650      10.417452
                          9       1    1fx2z             1.668650      10.417452
                          9       1    1fxy2             1.668650      10.417452
                          9       1    1fxyz             1.668650      18.043557
                          9       1    1fxz2             1.668650      10.417452
                          9       1    1fy3              1.668650       4.658826
                          9       1    1fy2z             1.668650      10.417452
                          9       1    1fyz2             1.668650      10.417452
                          9       1    1fz3              1.668650       4.658826

                         10       1    1px               1.675690       2.717580
                         10       1    1py               1.675690       2.717580
                         10       1    1pz               1.675690       2.717580

                         11       1    1dx2              2.091250       5.985769
                         11       1    1dxy              2.091250      10.367656
                         11       1    1dxz              2.091250      10.367656
                         11       1    1dy2              2.091250       5.985769
                         11       1    1dyz              2.091250      10.367656
                         11       1    1dz2              2.091250       5.985769

                         12       1    1fx3              3.468654      24.172222
                         12       1    1fx2y             3.468654      54.050731
                         12       1    1fx2z             3.468654      54.050731
                         12       1    1fxy2             3.468654      54.050731
                         12       1    1fxyz             3.468654      93.618612
                         12       1    1fxz2             3.468654      54.050731
                         12       1    1fy3              3.468654      24.172222
                         12       1    1fy2z             3.468654      54.050731
                         12       1    1fyz2             3.468654      54.050731
                         12       1    1fz3              3.468654      24.172222

                         13       1    1s                3.606548       1.865215

                         14       1    1px               3.969584       7.986774
                         14       1    1py               3.969584       7.986774
                         14       1    1pz               3.969584       7.986774

                         15       1    1dx2              5.029166      27.798888
                         15       1    1dxy              5.029166      48.149086
                         15       1    1dxz              5.029166      48.149086
                         15       1    1dy2              5.029166      27.798888
                         15       1    1dyz              5.029166      48.149086
                         15       1    1dz2              5.029166      27.798888

                         16       1    1px               8.669271      21.204025
                         16       1    1py               8.669271      21.204025
                         16       1    1pz               8.669271      21.204025

                         17       1    1s                9.067115       3.724020

                         18       1    1dx2             12.727173     141.153089
                         18       1    1dxy             12.727173     244.484323
                         18       1    1dxz             12.727173     244.484323
                         18       1    1dy2             12.727173     141.153089
                         18       1    1dyz             12.727173     244.484323
                         18       1    1dz2             12.727173     141.153089

                         19       1    1s               21.981132       7.235152

                         20       1    1px              34.121692     117.551530
                         20       1    1py              34.121692     117.551530
                         20       1    1pz              34.121692     117.551530

                         21       1    1s               62.030532      15.753034

                         22       1    1s              291.183943      50.238384

       Atomic covalent radius [Angstrom]:                                  0.750

       Atomic van der Waals radius [Angstrom]:                             1.550

     The atoms of this atomic kind are PAW atoms (GAPW):
       Hard Gaussian function radius:                                      1.512
       Rho0 radius:                                                        1.512
       Maximum GTO radius used for PAW projector construction:            24.566

     GAPW Soft Basis Set                                          def2-TZVP_soft

       Number of orbital shell sets:                                          11
       Number of orbital shells:                                              11
       Number of primitive Cartesian functions:                               11
       Number of Cartesian basis functions:                                   36
       Number of spherical basis functions:                                   31
       Norm type:                                                              2

       Normalised Cartesian orbitals:

                        Set   Shell   Orbital            Exponent    Coefficient

                          1       1    1s                0.136477       0.160031

                          2       1    1px               0.142608       0.124917
                          2       1    1py               0.142608       0.124917
                          2       1    1pz               0.142608       0.124917

                          3       1    1s                0.336471       0.314863

                          4       1    1px               0.416422       0.476823
                          4       1    1py               0.416422       0.476823
                          4       1    1pz               0.416422       0.476823

                          5       1    1dx2              0.469000       0.437484
                          5       1    1dxy              0.469000       0.757744
                          5       1    1dxz              0.469000       0.757744
                          5       1    1dy2              0.469000       0.437484
                          5       1    1dyz              0.469000       0.757744
                          5       1    1dz2              0.469000       0.437484

                          6       1    1s                0.846601       0.629027

                          7       1    1fx3              1.093000       1.798249
                          7       1    1fx2y             1.093000       4.021007
                          7       1    1fx2z             1.093000       4.021007
                          7       1    1fxy2             1.093000       4.021007
                          7       1    1fxyz             1.093000       6.964588
                          7       1    1fxz2             1.093000       4.021007
                          7       1    1fy3              1.093000       1.798249
                          7       1    1fy2z             1.093000       4.021007
                          7       1    1fyz2             1.093000       4.021007
                          7       1    1fz3              1.093000       1.798249

                          8       1    1px               3.427397       2.048573
                                                         1.178553       1.260732
                          8       1    1py               3.427397       2.048573
                                                         1.178553       1.260732
                          8       1    1pz               3.427397       2.048573
                                                         1.178553       1.260732

                          9       1    1dx2              1.654000       3.970513
                          9       1    1dxy              1.654000       6.877130
                          9       1    1dxz              1.654000       6.877130
                          9       1    1dy2              1.654000       3.970513
                          9       1    1dyz              1.654000       6.877130
                          9       1    1dz2              1.654000       3.970513

                         10       1    1s                3.686300       0.733788

                         11       1    1s         

     AE Potential information for                                            ALL

       Description:                                       All-electron potential
                                          Krack, Parrinello, PCCP 2, 2105 (2000)

       Gaussian exponent of the core charge distribution:               5.979100
       Electronic configuration (s p d ...):                           4   3   0

  3. Atomic kind: H                                     Number of atoms:       8

     Orbital Basis Set                                                 def2-TZVP

       Number of orbital shell sets:                                           4
       Number of orbital shells:                                               4
       Number of primitive Cartesian functions:                                6
       Number of Cartesian basis functions:                                    6
       Number of spherical basis functions:                                    6
       Norm type:                                                              2

       Normalised Cartesian orbitals:

                        Set   Shell   Orbital            Exponent    Coefficient

                          1       1    1s                0.103072       0.129648

                          2       1    1s                0.327230       0.308355

                          3       1    1px               0.800000       1.078456
                          3       1    1py               0.800000       1.078456
                          3       1    1pz               0.800000       1.078456

                          4       1    1s               34.061341       0.255630
                                                         5.123575       0.461360
                                                         1.164663       0.681121

     RI Auxiliary Basis Set                                      def2-TZVP-RIFIT

       Number of orbital shell sets:                                           7
       Number of orbital shells:                                               7
       Number of primitive Cartesian functions:                                7
       Number of Cartesian basis functions:                                   13
       Number of spherical basis functions:                                   13
       Norm type:                                                              2

       Normalised Cartesian orbitals:

                        Set   Shell   Orbital            Exponent    Coefficient

                          1       1    1s                0.264481       0.262849

                          2       1    1s                0.595125       0.482910

                          3       1    1px               0.595224       0.745230
                          3       1    1py               0.595224       0.745230
                          3       1    1pz               0.595224       0.745230

                          4       1    1px               1.354038       2.081991
                          4       1    1py               1.354038       2.081991
                          4       1    1pz               1.354038       2.081991

                          5       1    1s                1.861107       1.135635

                          6       1    1px               2.452498       4.374727
                          6       1    1py               2.452498       4.374727
                          6       1    1pz               2.452498       4.374727

                          7       1    1s                9.335216       3.806303

       Atomic covalent radius [Angstrom]:                                  0.320

       Atomic van der Waals radius [Angstrom]:                             1.090

     The atoms of this atomic kind are PAW atoms (GAPW):
       Hard Gaussian function radius:                                      1.200
       Rho0 radius:                                                        1.200
       Maximum GTO radius used for PAW projector construction:            24.566

     GAPW Soft Basis Set                                          def2-TZVP_soft

       Number of orbital shell sets:                                           4
       Number of orbital shells:                                               4
       Number of primitive Cartesian functions:                                5
       Number of Cartesian basis functions:                                    6
       Number of spherical basis functions:                                    6
       Norm type:                                                              2

       Normalised Cartesian orbitals:

                        Set   Shell   Orbital            Exponent    Coefficient

                          1       1    1s                0.103072       0.129648

                          2       1    1s                0.327230       0.308355

                          3       1    1px               0.800000       1.078456
                          3       1    1py               0.800000       1.078456
                          3       1    1pz               0.800000       1.078456

                          4       1    1s                5.123575       0.461360
                                                         1.164663       0.681121

     AE Potential information for                                            ALL

       Description:                                       All-electron potential
                                          Krack, Parrinello, PCCP 2, 2105 (2000)

       Gaussian exponent of the core charge distribution:              12.500000
       Electronic configuration (s p d ...):                           1   0   0


 MOLECULE KIND INFORMATION


 All atoms are their own molecule, skipping detailed information


 TOTAL NUMBERS AND MAXIMUM NUMBERS

  Total number of            - Atomic kinds:                                   3
                             - Atoms:                                         28
                             - Shell sets:                                   252
                             - Shells:                                       252
                             - Primitive Cartesian functions:                448
                             - Cartesian basis functions:                    768
                             - Spherical basis functions:                    668

  Maximum angular momentum of the orbital basis functions:                     3


 MODULE QUICKSTEP: ATOMIC COORDINATES IN ANGSTROM

   Atom Kind Element         X             Y             Z       Z(eff)     Mass
      1    1 C     6     12.222184     17.985378     14.999821   6.0000  12.0107
      2    1 C     6     13.030993     19.139475     14.999805   6.0000  12.0107
      3    1 C     6     14.171626     19.584082     14.999858   6.0000  12.0107
      4    1 C     6     12.909645     16.784158     14.999932   6.0000  12.0107
      5    1 C     6     14.317509     16.601777     14.999991   6.0000  12.0107
      6    1 C     6     15.345024     17.589779     14.999999   6.0000  12.0107
      7    1 C     6     15.445793     18.973560     14.999966   6.0000  12.0107
      8    1 C     6     16.875721     19.283481     15.000286   6.0000  12.0107
      9    1 C     6     16.668977     17.020671     14.999939   6.0000  12.0107
     10    1 C     6     17.603562     18.102147     14.999775   6.0000  12.0107
     11    1 C     6     15.042782     15.336878     15.000045   6.0000  12.0107
     12    1 C     6     16.496023     15.600109     14.999939   6.0000  12.0107
     13    2 N     7     14.558589     14.122887     15.000074   7.0000  14.0067
     14    2 N     7     17.392318     14.641958     14.999874   7.0000  14.0067
     15    1 C     6     15.482567     13.114901     15.000027   6.0000  12.0107
     16    1 C     6     16.896220     13.374464     14.999922   6.0000  12.0107
     17    1 C     6     15.042459     11.778776     15.000052   6.0000  12.0107
     18    1 C     6     15.949478     10.743747     14.999995   6.0000  12.0107
     19    1 C     6     17.336469     10.997256     14.999907   6.0000  12.0107
     20    1 C     6     17.799823     12.289035     14.999870   6.0000  12.0107
     21    3 H     1     13.975656     11.598242     15.000117   1.0000   1.0079
     22    3 H     1     15.595536      9.720621     15.000018   1.0000   1.0079
     23    3 H     1     18.032842     10.169110     14.999863   1.0000   1.0079
     24    3 H     1     18.857552     12.517367     14.999796   1.0000   1.0079
     25    3 H     1     17.293013     20.279379     15.000429   1.0000   1.0079
     26    3 H     1     18.678023     18.021178     14.999571   1.0000   1.0079
     27    3 H     1     12.321135     15.872274     14.999921   1.0000   1.0079
     28    3 H     1     11.142448     18.007851     14.999742   1.0000   1.0079



 SCF PARAMETERS         Density guess:                                    ATOMIC
                        --------------------------------------------------------
                        max_scf:                                             500
                        max_scf_history:                                       0
                        max_diis:                                              4
                        --------------------------------------------------------
                        eps_scf:                                        1.00E-06
                        eps_scf_history:                                0.00E+00
                        eps_diis:                                       1.00E-01
                        eps_eigval:                                     1.00E-05
                        --------------------------------------------------------
                        level_shift [a.u.]:                             0.000000
                        added MOs                                       602  604
                        --------------------------------------------------------
                        Mixing method:                            BROYDEN_MIXING
                                                charge density mixing in g-space
                        --------------------------------------------------------
                        No outer SCF

 PW_GRID| Information for grid number                                          1
 PW_GRID| Grid distributed over                                    48 processors
 PW_GRID| Real space group dimensions                                    48    1
 PW_GRID| the grid is blocked:                                                NO
 PW_GRID| Cutoff [a.u.]                                                    500.0
 PW_GRID| spherical cutoff:                                                   NO
 PW_GRID|   Bounds   1           -288     287                Points:         576
 PW_GRID|   Bounds   2           -288     287                Points:         576
 PW_GRID|   Bounds   3           -288     287                Points:         576
 PW_GRID| Volume element (a.u.^3)  0.9534E-03     Volume (a.u.^3)    182205.0337
 PW_GRID| Grid span                                                    FULLSPACE
 PW_GRID|   Distribution                         Average         Max         Min
 PW_GRID|   G-Vectors                          3981312.0     3981312     3981312
 PW_GRID|   G-Rays                                6912.0        6912        6912
 PW_GRID|   Real Space Points                  3981312.0     3981312     3981312

 PW_GRID| Information for grid number                                          2
 PW_GRID| Number of the reference grid                                         1
 PW_GRID| Grid distributed over                                    48 processors
 PW_GRID| Real space group dimensions                                    48    1
 PW_GRID| the grid is blocked:                                                NO
 PW_GRID| Cutoff [a.u.]                                                    166.7
 PW_GRID| spherical cutoff:                                                   NO
 PW_GRID|   Bounds   1           -180     179                Points:         360
 PW_GRID|   Bounds   2           -180     179                Points:         360
 PW_GRID|   Bounds   3           -180     179                Points:         360
 PW_GRID| Volume element (a.u.^3)  0.3905E-02     Volume (a.u.^3)    182205.0337
 PW_GRID| Grid span                                                    FULLSPACE
 PW_GRID|   Distribution                         Average         Max         Min
 PW_GRID|   G-Vectors                           972000.0      972720      971640
 PW_GRID|   G-Rays                                2700.0        2702        2699
 PW_GRID|   Real Space Points                   972000.0     1036800      907200

 PW_GRID| Information for grid number                                          3
 PW_GRID| Number of the reference grid                                         1
 PW_GRID| Grid distributed over                                    48 processors
 PW_GRID| Real space group dimensions                                    48    1
 PW_GRID| the grid is blocked:                                                NO
 PW_GRID| Cutoff [a.u.]                                                     55.6
 PW_GRID| spherical cutoff:                                                   NO
 PW_GRID|   Bounds   1            -96      95                Points:         192
 PW_GRID|   Bounds   2            -96      95                Points:         192
 PW_GRID|   Bounds   3            -96      95                Points:         192
 PW_GRID| Volume element (a.u.^3)  0.2574E-01     Volume (a.u.^3)    182205.0337
 PW_GRID| Grid span                                                    FULLSPACE
 PW_GRID|   Distribution                         Average         Max         Min
 PW_GRID|   G-Vectors                           147456.0      147648      147264
 PW_GRID|   G-Rays                                 768.0         769         767
 PW_GRID|   Real Space Points                   147456.0      147456      147456

 PW_GRID| Information for grid number                                          4
 PW_GRID| Number of the reference grid                                         1
 PW_GRID| Grid distributed over                                    48 processors
 PW_GRID| Real space group dimensions                                    48    1
 PW_GRID| the grid is blocked:                                                NO
 PW_GRID| Cutoff [a.u.]                                                     18.5
 PW_GRID| spherical cutoff:                                                   NO
 PW_GRID|   Bounds   1            -60      59                Points:         120
 PW_GRID|   Bounds   2            -60      59                Points:         120
 PW_GRID|   Bounds   3            -60      59                Points:         120
 PW_GRID| Volume element (a.u.^3)  0.1054         Volume (a.u.^3)    182205.0337
 PW_GRID| Grid span                                                    FULLSPACE
 PW_GRID|   Distribution                         Average         Max         Min
 PW_GRID|   G-Vectors                            36000.0       36240       35880
 PW_GRID|   G-Rays                                 300.0         302         299
 PW_GRID|   Real Space Points                    36000.0       43200       28800

 POISSON| Solver                                                         WAVELET
 POISSON| Wavelet| Scaling function                                           40
 POISSON| Periodicity                                                       NONE

 RS_GRID| Information for grid number                                          1
 RS_GRID|   Bounds   1           -288     287                Points:         576
 RS_GRID|   Bounds   2           -288     287                Points:         576
 RS_GRID|   Bounds   3           -288     287                Points:         576
 RS_GRID| Real space distribution over                                  3 groups
 RS_GRID| Real space distribution along direction                              1
 RS_GRID| Border size                                                         34
 RS_GRID| Real space distribution over                                  4 groups
 RS_GRID| Real space distribution along direction                              2
 RS_GRID| Border size                                                         34
 RS_GRID| Real space distribution over                                  4 groups
 RS_GRID| Real space distribution along direction                              3
 RS_GRID| Border size                                                         34
 RS_GRID|   Distribution                         Average         Max         Min
 RS_GRID|   Planes                                 260.0         260         260
 RS_GRID|   Distribution                         Average         Max         Min
 RS_GRID|   Planes                                 212.0         212         212
 RS_GRID|   Distribution                         Average         Max         Min
 RS_GRID|   Planes                                 212.0         212         212

 RS_GRID| Information for grid number                                          2
 RS_GRID|   Bounds   1           -180     179                Points:         360
 RS_GRID|   Bounds   2           -180     179                Points:         360
 RS_GRID|   Bounds   3           -180     179                Points:         360
 RS_GRID| Real space distribution over                                  3 groups
 RS_GRID| Real space distribution along direction                              1
 RS_GRID| Border size                                                         38
 RS_GRID| Real space distribution over                                  4 groups
 RS_GRID| Real space distribution along direction                              2
 RS_GRID| Border size                                                         38
 RS_GRID| Real space distribution over                                  4 groups
 RS_GRID| Real space distribution along direction                              3
 RS_GRID| Border size                                                         38
 RS_GRID|   Distribution                         Average         Max         Min
 RS_GRID|   Planes                                 196.0         196         196
 RS_GRID|   Distribution                         Average         Max         Min
 RS_GRID|   Planes                                 166.0         166         166
 RS_GRID|   Distribution                         Average         Max         Min
 RS_GRID|   Planes                                 166.0         166         166

 RS_GRID| Information for grid number                                          3
 RS_GRID|   Bounds   1            -96      95                Points:         192
 RS_GRID|   Bounds   2            -96      95                Points:         192
 RS_GRID|   Bounds   3            -96      95                Points:         192
 RS_GRID| Real space fully replicated
 RS_GRID| Group size                                                           1

 RS_GRID| Information for grid number                                          4
 RS_GRID|   Bounds   1            -60      59                Points:         120
 RS_GRID|   Bounds   2            -60      59                Points:         120
 RS_GRID|   Bounds   3            -60      59                Points:         120
 RS_GRID| Real space fully replicated
 RS_GRID| Group size                                                           1

  HFX_INFO| Replica ID:                                                        1
  HFX_INFO| FRACTION:                                               0.2000000000
  HFX_INFO| Interaction Potential:                                       COULOMB
  HFX_INFO| EPS_SCHWARZ:                                                 1.0E-10
  HFX_INFO| EPS_SCHWARZ_FORCES                                           1.0E-08
  HFX_INFO| EPS_STORAGE_SCALING:                                         1.0E+00
  HFX_INFO| NBINS:                                                            64
  HFX_INFO| BLOCK_SIZE:                                                        1
  HFX_INFO| Number of periodic shells considered:                           NONE
  HFX_INFO| Number of periodic cells considered:                            NONE

 
 RI-RPA| using GPW style
 

 *** WARNING in qs_scf_initialization.F:1037 :: The numerical rank of the  ***
 *** overlap matrix is lower than the number of requested MOs! Reduce the  ***
 *** number of MOs to the number of available MOs. If necessary, request a ***
 *** lower number of MOs or increase EPS_DEFAULT or EPS_PGF_ORB.           ***


 *** WARNING in qs_scf_initialization.F:1037 :: The numerical rank of the  ***
 *** overlap matrix is lower than the number of requested MOs! Reduce the  ***
 *** number of MOs to the number of available MOs. If necessary, request a ***
 *** lower number of MOs or increase EPS_DEFAULT or EPS_PGF_ORB.           ***


 Extrapolation method: initial_guess

 Atomic guess: The first density matrix is obtained in terms of atomic orbitals
               and electronic configurations assigned to each atomic kind

 Guess for atomic kind: C

 Electronic structure
    Total number of core electrons                                          0.00
    Total number of valence electrons                                       6.00
    Total number of electrons                                               6.00
    Multiplicity                                                   not specified
    S      2.00  2.00
    P      2.00


 *******************************************************************************
                  Iteration          Convergence                     Energy [au]
 *******************************************************************************
                          1        0.147208                     -37.407693601264
                          2        0.119028                     -37.412727810384
                          3        0.151591E-02                 -37.421609589284
                          4        0.252468E-03                 -37.421611675915
                          5        0.320487E-05                 -37.421611714904
                          6        0.162446E-06                 -37.421611714918

 Energy components [Hartree]           Total Energy ::          -37.421611714918
                                        Band Energy ::          -21.277675770449
                                     Kinetic Energy ::           37.196286588355
                                   Potential Energy ::          -74.617898303274
                                      Virial (-V/T) ::            2.006057731758
                                        Core Energy ::          -50.332032480142
                                          XC Energy ::           -4.732819490143
                                     Coulomb Energy ::           17.643240255367

 Orbital energies  State     L     Occupation   Energy[a.u.]          Energy[eV]

                       1     0          2.000      -9.943251         -270.569607
                       2     0          2.000      -0.498684          -13.569893

                       1     1          2.000      -0.196903           -5.358002


 Total Electron Density at R=0:                                       121.622713

 Guess for atomic kind: N

 Electronic structure
    Total number of core electrons                                          0.00
    Total number of valence electrons                                       7.00
    Total number of electrons                                               7.00
    Multiplicity                                                   not specified
    S      2.00  2.00
    P      3.00


 *******************************************************************************
                  Iteration          Convergence                     Energy [au]
 *******************************************************************************
                          1        0.380519                     -53.980466341384
                          2        0.378247                     -53.984135962459
                          3        0.134995E-01                 -54.018715315788
                          4        0.495764E-03                 -54.018772519246
                          5        0.432099E-04                 -54.018772571804
                          6        0.442273E-07                 -54.018772572302

 Energy components [Hartree]           Total Energy ::          -54.018772572302
                                        Band Energy ::          -30.143749938617
                                     Kinetic Energy ::           53.734490267735
                                   Potential Energy ::         -107.753262840037
                                      Virial (-V/T) ::            2.005290499699
                                        Core Energy ::          -73.699523175202
                                          XC Energy ::           -6.145173260726
                                     Coulomb Energy ::           25.825923863626

 Orbital energies  State     L     Occupation   Energy[a.u.]          Energy[eV]

                       1     0          2.000     -14.006310         -381.131070
                       2     0          2.000      -0.672190          -18.291221

                       1     1          3.000      -0.262250           -7.136190


 Total Electron Density at R=0:                                       197.177759

 Guess for atomic kind: H

 Electronic structure
    Total number of core electrons                                          0.00
    Total number of valence electrons                                       1.00
    Total number of electrons                                               1.00
    Multiplicity                                                   not specified
    S      1.00


 *******************************************************************************
                  Iteration          Convergence                     Energy [au]
 *******************************************************************************
                          1        0.917598E-02                  -0.444895232610
                          2        0.101733E-02                  -0.444969959338
                          3        0.739292E-04                  -0.444971980690
                          4        0.601377E-07                  -0.444971989573

 Energy components [Hartree]           Total Energy ::           -0.444971989573
                                        Band Energy ::           -0.230448725171
                                     Kinetic Energy ::            0.428990089350
                                   Potential Energy ::           -0.873962078923
                                      Virial (-V/T) ::            2.037254707321
                                        Core Energy ::           -0.496265746842
                                          XC Energy ::           -0.234272986041
                                     Coulomb Energy ::            0.285566743311

 Orbital energies  State     L     Occupation   Energy[a.u.]          Energy[eV]

                       1     0          1.000      -0.230449           -6.270829


 Total Electron Density at R=0:                                         0.247098

 Spin 1
 Re-scaling the density matrix to get the right number of electrons for spin 1
                  # Electrons              Trace(P)               Scaling factor
                           66                65.000                        1.015

 Spin 2
 Re-scaling the density matrix to get the right number of electrons for spin 2
                  # Electrons              Trace(P)               Scaling factor
                           64                65.000                        0.985

 Spin 1

 Number of electrons:                                                         66
 Number of occupied orbitals:                                                 66
 Number of molecular orbitals:                                               665

 Spin 2

 Number of electrons:                                                         64
 Number of occupied orbitals:                                                 64
 Number of molecular orbitals:                                               665

 Number of orbital functions:                                                668
 Number of independent orbital functions:                                    665


 SCF WAVEFUNCTION OPTIMIZATION

  Step     Update method      Time    Convergence         Total energy    Change
  ------------------------------------------------------------------------------

  HFX_MEM_INFO| Est. max. program size before HFX [MiB]:                    4379
  HFX_MEM_INFO| Number of cart. primitive ERI's calculated:          59058226660
  HFX_MEM_INFO| Number of sph. ERI's calculated:                     14477078797
  HFX_MEM_INFO| Number of sph. ERI's stored in-core:                 14477078797
  HFX_MEM_INFO| Number of sph. ERI's stored on disk:                           0
  HFX_MEM_INFO| Number of sph. ERI's calculated on the fly:                    0
  HFX_MEM_INFO| Total memory consumption ERI's RAM [MiB]:                  36704
  HFX_MEM_INFO| Whereof max-vals [MiB]:                                      151
[...]
 GW in the Gaussian and plane waves scheme with application to linear acenes.
 https://doi.org/10.1021/acs.jctc.6b00380

 A. Heinecke, G. Henry, M. Hutchinson, H. Pabst.
 Proceedings of Intl. Supercomputing Conference, 981-991 (2016).
 LIBXSMM: Accelerating Small Matrix Multiplications by Runtime Code Generation.
 https://doi.org/10.1109/SC.2016.83

 M. Del Ben, O. Schuett, T. Wentz, P. Messmer, J. Hutter, J. VandeVondele.
 Comput. Phys. Commun. 187, 120-129 (2015).
 Enabling simulation at the fifth rung of DFT: Large scale RPA calculations with 
 excellent time to solution.
 https://doi.org/10.1016/j.cpc.2014.10.021

 J. Hutter, M. Iannuzzi, F. Schiffmann, J. VandeVondele.
 WIREs Comput Mol Sci. 4, 15-25 (2014).
 CP2K: atomistic simulations of condensed matter systems.
 https://doi.org/10.1002/wcms.1159

 U. Borstnik, J. VandeVondele, V. Weber, J. Hutter.
 Parallel Comput. 40, 47-58 (2014).
 Sparse matrix multiplication: The distributed block-compressed sparse row 
 library.
 https://doi.org/10.1016/j.parco.2014.03.012

 A. Marek, V. Blum, R. Johanni, V. Havu, B. Lang, T. Auckenthaler, A. Heinecke, 
 H. Bungartz, H. Lederer.
 J. Phys. Condens. Matter 26, 213201 (2014).
 The ELPA library: scalable parallel eigenvalue solutions for electronic 
 structure theory and computational science.
 https://doi.org/10.1088/0953-8984/26/21/213201

 M. Del Ben, J. Hutter, J. VandeVondele.
 J. Chem. Theory Comput. 9, 2654-2671 (2013).
 Electron Correlation in the Condensed Phase from a Resolution of Identity 
 Approach Based on the Gaussian and Plane Waves Scheme.
 https://doi.org/10.1021/ct4002202

 M. Del Ben, J. Hutter, J. VandeVondele.
 J. Chem. Theory Comput. 8, 4177-4188 (2012).
 Second-Order Moller-Plesset Perturbation Theory in the Condensed Phase: An 
 Efficient and Massively Parallel Gaussian and Plane Waves Approach.
 https://doi.org/10.1021/ct300531w

 M. Guidon, J. Hutter, J. VandeVondele.
 J. Chem. Theory Comput. 5, 3010-3021 (2009).
 Robust Periodic Hartree-Fock Exchange for Large-Scale Simulations Using 
 Gaussian Basis Sets.
 https://doi.org/10.1021/ct900494g

 M. Guidon, F. Schiffmann, J. Hutter, J. VandeVondele.
 J. Chem. Phys. 128, 214104 (2008).
 Ab initio molecular dynamics using hybrid density functionals.
 https://doi.org/10.1063/1.2931945

 L. Genovese, T. Deutsch, S. Goedecker.
 J. Chem. Phys. 127, 054704 (2007).
 Efficient and accurate three-dimensional Poisson solver for surface problems.
 https://doi.org/10.1063/1.2754685

 L. Genovese, T. Deutsch, A. Neelov, S. Goedecker, G. Beylkin.
 J. Chem. Phys. 125, 074105 (2006).
 Efficient solution of Poisson's equation with free boundary conditions.
 https://doi.org/10.1063/1.2335442

 M. Frigo, S. G. Johnson.
 Proc. IEEE 93, 216-231 (2005).
 The design and implementation of FFTW3.
 https://doi.org/10.1109/JPROC.2004.840301

 M. Krack, M. Parrinello.
 Phys. Chem. Chem. Phys. 2, 2105-2112 (2000).
 All-electron ab-initio molecular dynamics.
 https://doi.org/10.1039/b001167n

 G. Lippert, J. Hutter, M. Parrinello.
 Theor. Chem. Acc. 103, 124-140 (1999).
 The Gaussian and augmented-plane-wave density functional method for ab initio 
 molecular dynamics simulations.
 https://doi.org/10.1007/s002140050523

 A. D. Becke.
 Phys. Rev. A 38, 3098-3100 (1988).
 Density-functional exchange-energy approximation with correct asymptotic 
 behavior.
 https://doi.org/10.1103/PhysRevA.38.3098

 C. T. Lee, W. T. Yang, R. G. Parr.
 Phys. Rev. B 37, 785-789 (1988).
 Development of the Colle-Salvetti correlation-energy formula into a functional 
 of the electron density.
 https://doi.org/10.1103/PhysRevB.37.785

 S. H. Vosko, L. Wilk, M. Nusair.
 Can. J. Phys. 58, 1200-1211 (1980).
 Accurate spin-dependent electron liquid correlation energies for local spin 
 density calculations: a critical analysis.
 https://doi.org/10.1139/p80-159


 -------------------------------------------------------------------------------
 -                                                                             -
 -                                T I M I N G                                  -
 -                                                                             -
 -------------------------------------------------------------------------------
 SUBROUTINE                       CALLS  ASD         SELF TIME        TOTAL TIME
                                MAXIMUM       AVERAGE  MAXIMUM  AVERAGE  MAXIMUM
 CP2K                                 1  1.0    0.042    0.047  745.949  745.980
 qs_energies                          1  2.0    0.001    0.004  745.196  745.232
 scf_env_do_scf                       1  3.0    0.001    0.001  651.474  651.501
 scf_env_do_scf_inner_loop           74  4.0    0.003    0.005  651.474  651.500
 qs_ks_build_kohn_sham_matrix        75  7.0    0.016    0.017  457.283  457.302
 qs_ks_update_qs_env                 74  5.0    0.001    0.001  454.325  454.345
 rebuild_ks_matrix                   74  6.0    0.000    0.000  454.318  454.337
 fft_wrap_pw1pw2                   3032  9.8    0.054    0.060  330.482  336.449
 fft_wrap_pw1pw2_500               2012 11.2   13.293   15.121  318.497  324.833
 fft3d_ps                          3032 11.8  172.558  177.536  259.631  266.354
 qs_vxc_create                       75  8.0    0.002    0.003  224.681  226.370
 xc_vxc_pw_create                    74  9.0    4.359    4.950  224.680  226.369
 xc_pw_derive                       888 11.0    0.007    0.009  155.987  160.602
 xc_rho_set_and_dset_create          74 10.0    5.571    6.598  119.577  122.463
 xc_pw_divergence                   148 10.0    0.004    0.005   96.726  101.140
 qs_rho_update_rho_low               75  5.0    0.002    0.002   99.313   99.317
 calculate_rho_elec                 150  6.0    1.125    1.228   99.002   99.007
 gspace_mixing                       73  5.0    1.095    1.166   96.268   96.272
 pw_poisson_solve                    75  8.0    2.518    2.710   78.704   78.849
 density_rs2pw                      150  7.0    0.007    0.008   69.176   71.618
 mp_alltoall_z22v                  3032 13.8   47.528   64.789   47.528   64.789
 hfx_ks_matrix                       75  8.0    0.002    0.002   64.380   64.404
 integrate_four_center               75  9.0    1.437    1.503   64.372   64.396
 broyden_mixing                      73  6.0   58.054   58.994   61.143   61.307
 integrate_four_center_main          75 10.0    0.195    0.416   60.081   61.244
 integrate_four_center_bin         6588 11.0   59.886   61.031   59.886   61.031
 x_to_yz                           1528 13.2   23.867   25.955   50.854   54.855
 sum_up_and_integrate                75  8.0    0.001    0.002   48.838   48.849
 mp2_main                             1  3.0    0.000    0.000   48.751   48.761
 integrate_v_rspace                 150  9.0    0.004    0.005   47.641   47.753
 mp2_gpw_main                         1  4.0    0.001    0.001   45.645   45.647
 rpa_ri_compute_en                    1  5.0    0.000    0.000   43.734   43.736
 rpa_num_int                          1  6.0    0.004    0.004   43.539   43.540
 yz_to_x                           1504 12.5   15.602   16.250   36.144   43.492
 scf_post_calculation_gpw             1  3.0    0.000    0.000   43.178   43.199
 ps_wavelet_solve                    75  9.0   34.897   37.681   40.953   41.341
 potential_pw2rs                    150 10.0    0.063    0.073   41.073   41.167
 parallel_gemm_fm_cosma             803  8.5   38.776   39.206   38.776   39.206
 mp_alltoall_d54                     75 10.0    3.728   32.599    3.728   32.599
 grid_collocate_task_list           150  7.0   27.458   31.431   27.458   31.431
 rpa_num_int_RPA_matrix_operati     125  7.0    0.002    0.009   29.004   29.114
 calc_mat_Q                         250  8.0    0.001    0.001   28.295   28.473
 contract_S_to_Q                    250  9.0    0.002    0.003   27.514   27.895
 transfer_rs2pw                     836  8.0    0.011    0.014   22.422   25.296
 pw_gather_p                       1504 11.5   22.751   23.889   22.751   23.889
 pw_to_cube                          40  5.0   18.096   18.705   20.053   22.812
 xc_functional_eval                1480 10.5    0.004    0.005   19.796   22.196
 qs_scf_post_unocc_cubes              2  4.0    1.734    2.453   21.515   21.538
 qs_scf_post_occ_cubes                2  4.0    1.927    2.703   21.408   21.409
 pw_scatter_p                      1528 12.2   20.063   20.767   20.063   20.767
 transfer_pw2rs                     677 10.7    0.007    0.009   20.404   20.509
 calculate_wavefunction              40  5.0    0.232    0.551   19.209   19.498
 collocate_function                  40  6.0    0.028    0.110   18.977   19.356
 pw_derive                         1113 11.6   17.336   19.119   17.336   19.119
 mp_waitany                       18326 11.2   15.222   18.039   15.222   18.039
 transfer_rs2pw_500                 266  9.4    5.956    6.467   14.027   16.944
 prepare_gapw_den                    75  8.0    0.001    0.002   16.488   16.687
 pw_axpy                           2533  8.8   15.730   16.643   15.730   16.643
 put_rho0_on_grid                    75  9.0    0.554    0.626   15.425   15.625
 mp_sum_d                          2272  6.8    4.998   14.494    4.998   14.494
 compute_GW_self_energy             125  7.0    0.004    0.008   14.216   14.487
 vwn_lsd_eval                       370 11.5   12.501   13.748   12.501   13.748
 transfer_pw2rs_500                 227 11.3    5.876    6.369   12.478   12.934
 fft_wrap_pw1pw2_170                340 10.2    0.592    0.913    9.750   12.816
 compute_GW_self_energy_deep        250  8.0    1.163    1.184   12.521   12.664
 pw_copy_to_array                  1504 11.5    9.099   10.602    9.099   10.602
 pw_copy                           1864 10.7    9.683   10.422    9.683   10.422
 mp_alltoall_d11v                  3087  9.6    7.094    7.960    7.094    7.960
 grid_integrate_task_list           150 10.0    0.917    6.550    0.917    6.550
 rs_gather_matrices                 150 10.0    0.006    0.017    5.647    6.198
 pw_copy_from_array                1528 12.2    4.935    6.180    4.935    6.180
 integrate_vhg0_rspace               75  8.0    0.174    0.211    6.117    6.132
 pw_poisson_set                      76  8.9    0.002    0.003    5.132    5.278
 cp2k_distribution_to_z_slices       75  9.0    2.284    2.573    3.674    5.070
 mp_waitall_1                     50206 12.0    3.272    5.036    3.272    5.036
 lyp_lsd_eval                       370 11.5    4.476    5.021    4.476    5.021
 rs_grid_zero                       688 10.6    4.810    5.012    4.810    5.012
 transfer_rs2pw_170                 190  8.8    1.486    1.748    3.789    4.264
 pw_zero                            930  9.9    3.741    4.128    3.741    4.128
 transfer_pw2rs_170                 150 12.0    1.423    1.544    3.634    4.044
 transfer_rs2pw_60                  190  8.8    2.245    2.321    3.768    3.883
 mp_sync                           1267  9.7    2.204    3.862    2.204    3.862
 transfer_pw2rs_60                  150 12.0    2.207    2.505    3.499    3.796
 mp_file_write_all_chv               40  6.0    0.694    3.453    0.694    3.453
 compute_vec_Sigma_x_minus_vxc_       1  4.0    0.000    0.000    2.970    2.970
 qs_scf_new_mos                      74  5.0    0.002    0.002    2.934    2.947
 mp_max_i                           622  2.9    0.751    2.699    0.751    2.699
 mp_sum_dm                        10653  7.4    1.415    2.679    1.415    2.679
 eigensolver_symm                   150  6.0    0.008    0.010    2.670    2.675
 pw_scale                           738  8.6    2.327    2.462    2.327    2.462
 fft_wrap_pw1pw2_60                 340 10.2    0.046    0.059    1.845    2.386
 xb88_lsd_eval                      370 11.5    2.108    2.291    2.108    2.291
 cp_fm_diag_elpa                    152  6.9    0.000    0.000    2.197    2.214
 mp_sendrecv_dv                   17860  9.8    2.024    2.161    2.024    2.161
 cp_fm_redistribute_end             152  7.9    1.079    2.108    1.088    2.111
 cp_fm_diag_elpa_base               152  7.9    0.987    1.982    1.009    2.028
 mp_alltoall_d45                     76 10.0    1.737    2.009    1.737    2.009
 mp2_ri_gpw_compute_in                1  5.0    0.002    0.004    1.900    1.900
 mp2_ri_gpw_compute_in_loop           1  6.0    0.000    0.001    1.865    1.866
 init_scf_run                         1  3.0    0.001    0.002    1.735    1.735
 scf_env_initial_rho_setup            1  4.0    0.001    0.001    1.695    1.695
 pw_integral_ab_c1d_c1d_gs           75  9.0    1.086    1.159    1.377    1.652
 mp_file_set_view_chv                40  6.0    0.830    1.411    0.830    1.411
 calculate_vxc_atom                  75  8.0    0.083    0.273    1.262    1.294
 mp2_eri_3c_integrate                 1  7.0    0.096    0.150    1.055    1.244
 integrate_set_3c                472428  8.0    0.699    0.859    0.959    1.167
 xalpha_lsd_eval                    370 11.5    0.707    1.162    0.707    1.162
 pw_poisson_rebuild                  75  9.0    0.000    0.000    0.977    0.996
 ps_wavelet_create                    1 10.0    0.000    0.000    0.977    0.996
 RS_z_slice_distribution              1 11.0    0.915    0.955    0.977    0.996
 cp_fm_cholesky_invert              125  8.0    0.916    0.936    0.916    0.936
 transfer_rs2pw_20                  190  8.8    0.326    0.352    0.827    0.883
 calc_fm_mat_S_rpa                  250  9.0    0.780    0.874    0.780    0.874
 gaVxcgb_GC                         148  9.0    0.187    0.870    0.187    0.870
 transfer_pw2rs_20                  150 12.0    0.388    0.439    0.786    0.857
 mp_sum_dv                          546  8.5    0.513    0.846    0.513    0.846
 powell_optimize                 833532 11.0    0.758    0.782    0.758    0.782
 scale_and_distribute               150 10.0    0.652    0.776    0.652    0.776
 calc_screening_functions             1 10.0    0.276    0.294    0.726    0.750
 contract_B_L                         4  7.0    0.013    0.013    0.556    0.735
 cp_fm_to_fm_submat_general         250 10.0    0.418    0.618    0.418    0.618
 xc_pw_smooth                       148 10.0    0.000    0.001    0.548    0.614
 compute_Erpa_by_freq_int           125  8.0    0.004    0.007    0.603    0.614
 cp_fm_cholesky_decompose           126  9.0    0.602    0.609    0.602    0.609
 calculate_rho0_atom                225  9.0    0.578    0.591    0.578    0.591
 qs_init_subsys                       1  2.0    0.018    0.019    0.564    0.564
 qs_env_setup                         1  3.0    0.001    0.001    0.539    0.539
 qs_env_rebuild_pw_env                2  3.5    0.000    0.000    0.537    0.537
 pw_env_rebuild                       1  5.0    0.004    0.004    0.537    0.537
 pw_grid_setup                        4  6.0    0.000    0.000    0.530    0.530
 pw_grid_setup_internal               4  7.0    0.008    0.009    0.530    0.530
 calc_pair_dist_radii                 1 10.0    0.140    0.164    0.447    0.474
 calculate_rho_atom                 225  9.0    0.201    0.474    0.201    0.474
 pw_grid_sort                         4  8.0    0.313    0.319    0.452    0.458
 mp_bcast_l                          40  6.0    0.433    0.442    0.433    0.442
 mp_cart_create                     661  9.8    0.233    0.413    0.233    0.413
 cp_fm_uplo_to_full                 277  8.4    0.261    0.398    0.261    0.398
 dbt_pgrid_create_expert             84 10.8    0.000    0.001    0.215    0.392
 fft_wrap_pw1pw2_20                 340 10.2    0.017    0.020    0.336    0.376
 dbcsr_multiply_generic             417  8.0    0.006    0.007    0.349    0.361
 dbt_total                            8  8.0    0.000    0.000    0.310    0.310
 calculate_rho_atom_coeff            75  6.0    0.083    0.098    0.308    0.309
 abc_contract                    472428  9.0    0.260    0.308    0.260    0.308
 mixing_init                          1  5.0    0.279    0.291    0.291    0.292
 dbt_contract                         4  9.0    0.000    0.001    0.265    0.272
 write_available_results              1  4.0    0.002    0.002    0.252    0.252
 update_ks_atom                      75  8.0    0.068    0.083    0.237    0.251
 write_mo_free_results                1  5.0    0.022    0.022    0.218    0.218
 integrate_four_center_load          75 10.0    0.000    0.001    0.174    0.200
 calculate_dm_sparse                148  6.0    0.000    0.001    0.196    0.200
 hfx_load_balance                     1 11.0    0.000    0.000    0.174    0.200
 cp_dbcsr_plus_fm_fm_t              148  7.0    0.001    0.001    0.194    0.198
 create_integ_mat                     2  6.0    0.001    0.002    0.192    0.192
 dbt_tas_multiply                     8 11.5    0.000    0.000    0.191    0.191
 dbt_tas_total                        8 12.5    0.001    0.001    0.191    0.191
 cp_fm_symm                         150  7.0    0.171    0.187    0.171    0.187
 mp_bcast_dm                       8400  9.0    0.169    0.171    0.169    0.171
 multiply_cannon                    417  9.0    0.013    0.015    0.159    0.171
 integrate_four_center_getP          75 10.0    0.037    0.042    0.138    0.164
 make_m2s                           834  9.0    0.004    0.004    0.158    0.162
 copy_dbcsr_to_fm                   289  6.9    0.003    0.003    0.140    0.153
 rs_scatter_matrices                150  7.0    0.005    0.010    0.069    0.148
 Q_trace_and_add_unit_matrix        125  8.0    0.003    0.003    0.069    0.143
 sort_shells                          4  9.0    0.139    0.142    0.139    0.142
 hirshfeld_integration                2  6.0    0.006    0.032    0.139    0.140
 multiply_cannon_loop               417 10.0    0.004    0.005    0.130    0.138
 make_images                        834 10.0    0.031    0.037    0.132    0.137
 dbt_tas_dbm                          8 13.5    0.000    0.000    0.133    0.133
 cp_fm_redistribute_start           152  7.9    0.075    0.094    0.100    0.132
 dbcsr_complete_redistribute        589  8.5    0.029    0.032    0.121    0.131
 array2fm                             4  7.0    0.000    0.000    0.126    0.131
 dbt_tas_mm_1N                        8 14.5    0.000    0.000    0.108    0.125
 dbm_multiply                         8 15.5    0.108    0.125    0.108    0.125
 dbt_copy                            12 10.0    0.000    0.000    0.097    0.106
 multiply_cannon_multrec           2100 10.9    0.092    0.105    0.093    0.106
 integrate_four_center_dist_KS       75 10.0    0.022    0.027    0.105    0.105
 offload_free_buffer                 83  8.4    0.091    0.105    0.091    0.105
 vxc_of_r_new                       296  9.0    0.004    0.015    0.027    0.099
 Vh_1c_gg_integrals                  75  8.0    0.016    0.064    0.079    0.089
 mp2_main_alloc_hfx                   1  4.0    0.066    0.078    0.066    0.078
 mp_sum_l                          1623  9.0    0.047    0.077    0.047    0.077
 mp_alltoall_i22                    879  9.3    0.060    0.075    0.060    0.075
 dbcsr_desymmetrize_deep            290  7.9    0.005    0.007    0.059    0.075
 -------------------------------------------------------------------------------

 The number of warnings for this run is : 2
 
 -------------------------------------------------------------------------------
  **** **** ******  **  PROGRAM ENDED AT                 2026-02-18 12:51:20.022
 ***** ** ***  *** **   PROGRAM RAN ON                                    cn1226
 **    ****   ******    PROGRAM RAN BY                                  metdyn02
 ***** **    ** ** **   PROGRAM PROCESS ID                               3853061
  **** **  *******  **  PROGRAM STOPPED IN /scratch/hpc-prf-metdyn/metdyn02_Remi
                                           /05_Dyson_orbitals/cp2k/closed/triple
                                           t/B3LYP
