SIRIUS 7.7.0, git hash: https://api.github.com/repos/electronic-structure/SIRIUS/git/ref/tags/v7.7.0
 DBCSR| CPU Multiplication driver                                           BLAS (U)
 DBCSR| Multrec recursion limit                                              512 (U)
 DBCSR| Multiplication stack size                                           1000 (D)
 DBCSR| Maximum elements for images                                    UNLIMITED (U)
 DBCSR| Multiplicative factor virtual images                                   1 (U)
 DBCSR| Use multiplication densification                                       T (D)
 DBCSR| Multiplication size stacks                                             3 (U)
 DBCSR| Use memory pool for CPU allocation                                     F (U)
 DBCSR| Number of 3D layers                                               SINGLE (U)
 DBCSR| Use MPI memory allocation                                              F (U)
 DBCSR| Use RMA algorithm                                                      F (U)
 DBCSR| Use Communication thread                                               T (U)
 DBCSR| Communication thread load                                             75 (D)
 DBCSR| MPI: My process id                                                     0
 DBCSR| MPI: Number of processes                                              48
 DBCSR| OMP: Current number of threads                                         4
 DBCSR| OMP: Max number of threads                                             4
 DBCSR| Split modifier for TAS multiplication algorithm                  1.0E+00 (U)


  **** **** ******  **  PROGRAM STARTED AT               2026-02-18 12:37:49.910
 ***** ** ***  *** **   PROGRAM STARTED ON                                cn0371
 **    ****   ******    PROGRAM STARTED BY                              metdyn02
 ***** **    ** ** **   PROGRAM PROCESS ID                               3425891
  **** **  *******  **  PROGRAM STARTED IN /scratch/hpc-prf-metdyn/metdyn02_Remi
                                           /05_Dyson_orbitals/cp2k/closed/single
                                           t/B3LYP

 CP2K| version string:                 CP2K version 2025.2 (Development Version)
 CP2K| source code revision number:                                  git:2a4e9c4
 CP2K| cp2kflags: omp libint fftw3 libxc libgrpp elpa parallel scalapack mpi_f08
 CP2K|             cosma xsmm plumed2 spglib sirius libvori libbqb libvdwxc hdf5
 CP2K| is freely available from                            https://www.cp2k.org/
 CP2K| Program compiled at                      Fri Oct 24 04:52:17 PM CEST 2025
 CP2K| Program compiled on                                                login1
 CP2K| Program compiled for                                                local
 CP2K| Data directory path    /opt/software/pc2/EB-SW/software/CP2K/2025.2-foss-
 CP2K| Input file name                                                    GW.inp

 GLOBAL| Force Environment number                                              1
 GLOBAL| Basis set file name            /scratch/hpc-prf-metdyn/metdyn02_Remi/05
 GLOBAL| Potential file name            /pc2/groups/hpc-prf-metdyn/metdyn02_Remi
 GLOBAL| MM Potential file name                                     MM_POTENTIAL
 GLOBAL| Coordinate file name                                      __STD_INPUT__
 GLOBAL| Method name                                                        CP2K
 GLOBAL| Project name                                                       Open
 GLOBAL| Run type                                                         ENERGY
 GLOBAL| FFT library                                                       FFTW3
 GLOBAL| Diagonalization library                                            ELPA
 GLOBAL| Cholesky decomposition library                                ScaLAPACK
 GLOBAL| DGEMM library                                                      BLAS
 GLOBAL| Minimum number of eigenvectors for ELPA usage                        16
 GLOBAL| Orthonormality check for eigenvectors                          DISABLED
 GLOBAL| Matrix multiplication library                                     COSMA
 GLOBAL| All-to-all communication in single precision                          F
 GLOBAL| FFTs using library dependent lengths                                  F
 GLOBAL| Grid backend                                                       AUTO
 GLOBAL| Global print level                                               MEDIUM
 GLOBAL| MPI I/O enabled                                                       T
 GLOBAL| Total number of message passing processes                            48
 GLOBAL| Number of distributed systems (nodes)                                 1
 GLOBAL| Number of threads for this process                                    4
 GLOBAL| This output is from process                                           0
 GLOBAL| OpenMP stack size per thread (OMP_STACKSIZE)                    default
 GLOBAL| CPU model name                          AMD EPYC 9655 96-Core Processor
 GLOBAL| CPUID                                                              1003

 MEMORY| system memory details [Kb]
 MEMORY|                        rank 0           min           max       average
 MEMORY| MemTotal            791039048     791039048     791039048     791039048
 MEMORY| MemFree             741448032     741448032     741448032     741448032
 MEMORY| Buffers                  3200          3200          3200          3200
 MEMORY| Cached               13509300      13509300      13509300      13509300
 MEMORY| Slab                  3368516       3368516       3368516       3368516
 MEMORY| SReclaimable          1243612       1243612       1243612       1243612
 MEMORY| MemLikelyFree       756204144     756204144     756204144     756204144


 *** Fundamental physical constants (SI units) ***

 *** Literature: B. J. Mohr and B. N. Taylor,
 ***             CODATA recommended values of the fundamental physical
 ***             constants: 2006, Web Version 5.1
 ***             http://physics.nist.gov/constants

 Speed of light in vacuum [m/s]                             2.99792458000000E+08
 Magnetic constant or permeability of vacuum [N/A**2]       1.25663706143592E-06
 Electric constant or permittivity of vacuum [F/m]          8.85418781762039E-12
 Planck constant (h) [J*s]                                  6.62606896000000E-34
 Planck constant (h-bar) [J*s]                              1.05457162825177E-34
 Elementary charge [C]                                      1.60217648700000E-19
 Electron mass [kg]                                         9.10938215000000E-31
 Electron g factor [ ]                                     -2.00231930436220E+00
 Proton mass [kg]                                           1.67262163700000E-27
 Fine-structure constant                                    7.29735253760000E-03
 Rydberg constant [1/m]                                     1.09737315685270E+07
 Avogadro constant [1/mol]                                  6.02214179000000E+23
 Boltzmann constant [J/K]                                   1.38065040000000E-23
 Atomic mass unit [kg]                                      1.66053878200000E-27
 Bohr radius [m]                                            5.29177208590000E-11

 *** Conversion factors ***

 [u] -> [a.u.]                                              1.82288848426455E+03
 [Angstrom] -> [Bohr] = [a.u.]                              1.88972613288564E+00
 [a.u.] = [Bohr] -> [Angstrom]                              5.29177208590000E-01
 [a.u.] -> [s]                                              2.41888432650478E-17
 [a.u.] -> [fs]                                             2.41888432650478E-02
 [a.u.] -> [J]                                              4.35974393937059E-18
 [a.u.] -> [N]                                              8.23872205491840E-08
 [a.u.] -> [K]                                              3.15774647902944E+05
 [a.u.] -> [kJ/mol]                                         2.62549961709828E+03
 [a.u.] -> [kcal/mol]                                       6.27509468713739E+02
 [a.u.] -> [Pa]                                             2.94210107994716E+13
 [a.u.] -> [bar]                                            2.94210107994716E+08
 [a.u.] -> [atm]                                            2.90362800883016E+08
 [a.u.] -> [eV]                                             2.72113838565563E+01
 [a.u.] -> [Hz]                                             6.57968392072181E+15
 [a.u.] -> [1/cm] (wave numbers)                            2.19474631370540E+05
 [a.u./Bohr**2] -> [1/cm]                                   5.14048714338585E+03
 

 CELL_TOP| Volume [angstrom^3]:                                     27000.000000
 CELL_TOP| Vector a [angstrom    30.000     0.000     0.000   |a| =    30.000000
 CELL_TOP| Vector b [angstrom     0.000    30.000     0.000   |b| =    30.000000
 CELL_TOP| Vector c [angstrom     0.000     0.000    30.000   |c| =    30.000000
 CELL_TOP| Angle (b,c), alpha [degree]:                                90.000000
 CELL_TOP| Angle (a,c), beta  [degree]:                                90.000000
 CELL_TOP| Angle (a,b), gamma [degree]:                                90.000000
 CELL_TOP| Numerically orthorhombic:                                         YES
 CELL_TOP| Periodicity                                                      NONE

 GENERATE|  Preliminary Number of Bonds generated:                             0
 GENERATE|  Achieved consistency in connectivity generation.

 CELL| Volume [angstrom^3]:                                         27000.000000
 CELL| Vector a [angstrom]:      30.000     0.000     0.000   |a| =    30.000000
 CELL| Vector b [angstrom]:       0.000    30.000     0.000   |b| =    30.000000
 CELL| Vector c [angstrom]:       0.000     0.000    30.000   |c| =    30.000000
 CELL| Angle (b,c), alpha [degree]:                                    90.000000
 CELL| Angle (a,c), beta  [degree]:                                    90.000000
 CELL| Angle (a,b), gamma [degree]:                                    90.000000
 CELL| Numerically orthorhombic:                                             YES
 CELL| Periodicity                                                          NONE

 CELL_REF| Volume [angstrom^3]:                                     27000.000000
 CELL_REF| Vector a [angstrom    30.000     0.000     0.000   |a| =    30.000000
 CELL_REF| Vector b [angstrom     0.000    30.000     0.000   |b| =    30.000000
 CELL_REF| Vector c [angstrom     0.000     0.000    30.000   |c| =    30.000000
 CELL_REF| Angle (b,c), alpha [degree]:                                90.000000
 CELL_REF| Angle (a,c), beta  [degree]:                                90.000000
 CELL_REF| Angle (a,b), gamma [degree]:                                90.000000
 CELL_REF| Numerically orthorhombic:                                         YES
 CELL_REF| Periodicity                                                      NONE

 *******************************************************************************
 *******************************************************************************
 **                                                                           **
 **     #####                         ##              ##                      **
 **    ##   ##            ##          ##              ##                      **
 **   ##     ##                       ##            ######                    **
 **   ##     ##  ##   ##  ##   #####  ##  ##   ####   ##    #####    #####    **
 **   ##     ##  ##   ##  ##  ##      ## ##   ##      ##   ##   ##  ##   ##   **
 **   ##  ## ##  ##   ##  ##  ##      ####     ###    ##   ######   ######    **
 **    ##  ###   ##   ##  ##  ##      ## ##      ##   ##   ##       ##        **
 **     #######   #####   ##   #####  ##  ##  ####    ##    #####   ##        **
 **           ##                                                    ##        **
 **                                                                           **
 **                                                ... make the atoms dance   **
 **                                                                           **
 **            Copyright (C) by CP2K developers group (2000-2025)             **
 **                      J. Chem. Phys. 152, 194103 (2020)                    **
 **                                                                           **
 *******************************************************************************

 DFT| Spin restricted Kohn-Sham (RKS) calculation                            RKS
 DFT| Multiplicity                                                             1
 DFT| Number of spin states                                                    1
 DFT| Charge                                                                   0
 DFT| Self-interaction correction (SIC)                                       NO
 DFT| Cutoffs: density                                              1.000000E-10
 DFT|          gradient                                             1.000000E-10
 DFT|          tau                                                  1.000000E-10
 DFT|          cutoff_smoothing_range                               0.000000E+00
 DFT| XC density smoothing                                                  NONE
 DFT| XC derivatives                                                          PW

 FUNCTIONAL| BECKE88:
 FUNCTIONAL| A. Becke, Phys. Rev. A 38, 3098 (1988) {LDA version}               
 FUNCTIONAL| LYP:
 FUNCTIONAL| C. Lee, W. Yang, R.G. Parr, Phys. Rev. B, 37, 785 (1988) {LDA versi
 FUNCTIONAL| on}                                                                
 FUNCTIONAL| VWN:
 FUNCTIONAL| S. H. Vosko, L. Wilk and M. Nusair, Can. J. Phys. 58, 1200 (1980) {
 FUNCTIONAL| LDA version}                                                       
 FUNCTIONAL| XALPHA:
 FUNCTIONAL| Dirac/Slater local exchange; parameter=  0.666 {LDA}               


 QS| Method:                                                                GAPW
 QS| Density plane wave grid type                        NON-SPHERICAL FULLSPACE
 QS| Number of grid levels:                                                    4
 QS| Density cutoff [a.u.]:                                                500.0
 QS| Multi grid cutoff [a.u.]: 1) grid level                               500.0
 QS|                           2) grid level                               166.7
 QS|                           3) grid level                                55.6
 QS|                           4) grid level                                18.5
 QS| Grid level progression factor:                                          3.0
 QS| Relative density cutoff [a.u.]:                                        50.0
 QS| Interaction thresholds: eps_pgf_orb:                                1.0E-12
 QS|                         eps_filter_matrix:                          0.0E+00
 QS|                         eps_core_charge:                            1.0E-14
 QS|                         eps_rho_gspace:                             1.0E-12
 QS|                         eps_rho_rspace:                             1.0E-12
 QS|                         eps_gvg_rspace:                             1.0E-06
 QS|                         eps_ppl:                                    1.0E-02
 QS|                         eps_ppnl:                                   1.0E-08
 QS| GAPW|      One center basis from orbital basis primitives
 QS| GAPW|                   eps_fit:                                    1.0E-04
 QS| GAPW|                   eps_iso:                                    1.0E-12
 QS| GAPW|                   eps_svd:                                    1.0E-08
 QS| GAPW|                   eps_cpc:                                    1.0E-12
 QS| GAPW|   atom-r-grid: quadrature:                                     GC_LOG
 QS| GAPW|      atom-s-grid:  max l :                                          6
 QS| GAPW|      max_l_rho0 :                                                   2


 ATOMIC KIND INFORMATION

  1. Atomic kind: C                                     Number of atoms:      18

     Orbital Basis Set                                                 def2-TZVP

       Number of orbital shell sets:                                          11
       Number of orbital shells:                                              11
       Number of primitive Cartesian functions:                               20
       Number of Cartesian basis functions:                                   36
       Number of spherical basis functions:                                   31
       Norm type:                                                              2

       Normalised Cartesian orbitals:

                        Set   Shell   Orbital            Exponent    Coefficient

                          1       1    1s                0.095164       0.122114

                          2       1    1px               0.100568       0.080727
                          2       1    1py               0.100568       0.080727
                          2       1    1pz               0.100568       0.080727

                          3       1    1s                0.229728       0.236494

                          4       1    1px               0.288875       0.301876
                          4       1    1py               0.288875       0.301876
                          4       1    1pz               0.288875       0.301876

                          5       1    1dx2              0.318000       0.221644
                          5       1    1dxy              0.318000       0.383899
                          5       1    1dxz              0.318000       0.383899
                          5       1    1dy2              0.318000       0.221644
                          5       1    1dyz              0.318000       0.383899
                          5       1    1dz2              0.318000       0.221644

                          6       1    1s                0.576963       0.471815

                          7       1    1fx3              0.761000       0.796288
                          7       1    1fx2y             0.761000       1.780553
                          7       1    1fx2z             0.761000       1.780553
                          7       1    1fxy2             0.761000       1.780553
                          7       1    1fxyz             0.761000       3.084008
                          7       1    1fxz2             0.761000       1.780553
                          7       1    1fy3              0.761000       0.796288
                          7       1    1fy2z             0.761000       1.780553
                          7       1    1fyz2             0.761000       1.780553
                          7       1    1fz3              0.761000       0.796288

                          8       1    1px              34.697232       1.359665
                                                         7.958262       1.451259
                                                         2.378083       1.270923
                                                         0.814332       0.802572
                          8       1    1py              34.697232       1.359665
                                                         7.958262       1.451259
                                                         2.378083       1.270923
                                                         0.814332       0.802572
                          8       1    1pz              34.697232       1.359665
                                                         7.958262       1.451259
                                                         2.378083       1.270923
                                                         0.814332       0.802572

                          9       1    1dx2              1.097000       1.935401
                          9       1    1dxy              1.097000       3.352214
                          9       1    1dxz              1.097000       3.352214
                          9       1    1dy2              1.097000       1.935401
                          9       1    1dyz              1.097000       3.352214
                          9       1    1dz2              1.097000       1.935401

                         10       1    1s                6.206714       1.838354
                                                         2.576490       0.544758

                         11       1    1s            13575.349682       0.543591
                                                      2035.233368       1.014554
                                                       463.225624       1.731573
                                                       131.200196       2.691038
                                                        42.853016       3.604455
                                                        15.584186       3.702556

     RI Auxiliary Basis Set                                      def2-TZVP-RIFIT

       Number of orbital shell sets:                                          22
       Number of orbital shells:                                              22
       Number of primitive Cartesian functions:                               22
       Number of Cartesian basis functions:                                   86
       Number of spherical basis functions:                                   72
       Norm type:                                                              2

       Normalised Cartesian orbitals:

                        Set   Shell   Orbital            Exponent    Coefficient

                          1       1    1s                0.206828       0.218583

                          2       1    1px               0.237606       0.236462
                          2       1    1py               0.237606       0.236462
                          2       1    1pz               0.237606       0.236462

                          3       1    1dx2              0.257531       0.153236
                          3       1    1dxy              0.257531       0.265412
                          3       1    1dxz              0.257531       0.265412
                          3       1    1dy2              0.257531       0.153236
                          3       1    1dyz              0.257531       0.265412
                          3       1    1dz2              0.257531       0.153236

                          4       1    1s                0.405917       0.362442

                          5       1    1px               0.491713       0.586921
                          5       1    1py               0.491713       0.586921
                          5       1    1pz               0.491713       0.586921

                          6       1    1fx3              0.552898       0.388066
                          6       1    1fx2y             0.552898       0.867743
                          6       1    1fx2z             0.552898       0.867743
                          6       1    1fxy2             0.552898       0.867743
                          6       1    1fxyz             0.552898       1.502975
                          6       1    1fxz2             0.552898       0.867743
                          6       1    1fy3              0.552898       0.388066
                          6       1    1fy2z             0.552898       0.867743
                          6       1    1fyz2             0.552898       0.867743
                          6       1    1fz3              0.552898       0.388066

                          7       1    1dx2              0.587935       0.649734
                          7       1    1dxy              0.587935       1.125372
                          7       1    1dxz              0.587935       1.125372
                          7       1    1dy2              0.587935       0.649734
                          7       1    1dyz              0.587935       1.125372
                          7       1    1dz2              0.587935       0.649734

                          8       1    1s                1.074386       0.752108

                          9       1    1px               1.131808       1.664010
                          9       1    1py               1.131808       1.664010
                          9       1    1pz               1.131808       1.664010

                         10       1    1fx3              1.160680       2.058531
                         10       1    1fx2y             1.160680       4.603016
                         10       1    1fx2z             1.160680       4.603016
                         10       1    1fxy2             1.160680       4.603016
                         10       1    1fxyz             1.160680       7.972658
                         10       1    1fxz2             1.160680       4.603016
                         10       1    1fy3              1.160680       2.058531
                         10       1    1fy2z             1.160680       4.603016
                         10       1    1fyz2             1.160680       4.603016
                         10       1    1fz3              1.160680       2.058531

                         11       1    1dx2              1.415016       3.021634
                         11       1    1dxy              1.415016       5.233624
                         11       1    1dxz              1.415016       5.233624
                         11       1    1dy2              1.415016       3.021634
                         11       1    1dyz              1.415016       5.233624
                         11       1    1dz2              1.415016       3.021634

                         12       1    1fx3              2.387017      10.426283
                         12       1    1fx2y             2.387017      23.313877
                         12       1    1fx2z             2.387017      23.313877
                         12       1    1fxy2             2.387017      23.313877
                         12       1    1fxyz             2.387017      40.380819
                         12       1    1fxz2             2.387017      23.313877
                         12       1    1fy3              2.387017      10.426283
                         12       1    1fy2z             2.387017      23.313877
                         12       1    1fyz2             2.387017      23.313877
                         12       1    1fz3              2.387017      10.426283

                         13       1    1px               2.736198       5.016197
                         13       1    1py               2.736198       5.016197
                         13       1    1pz               2.736198       5.016197

                         14       1    1s                3.311579       1.749591

                         15       1    1dx2              3.411677      14.096240
                         15       1    1dxy              3.411677      24.415403
                         15       1    1dxz              3.411677      24.415403
                         15       1    1dy2              3.411677      14.096240
                         15       1    1dyz              3.411677      24.415403
                         15       1    1dz2              3.411677      14.096240

                         16       1    1px               6.379087      14.450678
                         16       1    1py               6.379087      14.450678
                         16       1    1pz               6.379087      14.450678

                         17       1    1dx2              9.067688      77.988119
                         17       1    1dxy              9.067688     135.079385
                         17       1    1dxz              9.067688     135.079385
                         17       1    1dy2              9.067688      77.988119
                         17       1    1dyz              9.067688     135.079385
                         17       1    1dz2              9.067688      77.988119

                         18       1    1s                9.433654       3.836366

                         19       1    1s               23.282845       7.554176

                         20       1    1px              24.794323      78.864291
                         20       1    1py              24.794323      78.864291
                         20       1    1pz              24.794323      78.864291

                         21       1    1s               59.862607      15.338285

                         22       1    1s              281.476933      48.977002

       Atomic covalent radius [Angstrom]:                                  0.770

       Atomic van der Waals radius [Angstrom]:                             1.700

     The atoms of this atomic kind are PAW atoms (GAPW):
       Hard Gaussian function radius:                                      1.512
       Rho0 radius:                                                        1.512
       Maximum GTO radius used for PAW projector construction:            24.566

     GAPW Soft Basis Set                                          def2-TZVP_soft

       Number of orbital shell sets:                                          11
       Number of orbital shells:                                              11
       Number of primitive Cartesian functions:                               11
       Number of Cartesian basis functions:                                   36
       Number of spherical basis functions:                                   31
       Norm type:                                                              2

       Normalised Cartesian orbitals:

                        Set   Shell   Orbital            Exponent    Coefficient

                          1       1    1s                0.095164       0.122114

                          2       1    1px               0.100568       0.080727
                          2       1    1py               0.100568       0.080727
                          2       1    1pz               0.100568       0.080727

                          3       1    1s                0.229728       0.236494

                          4       1    1px               0.288875       0.301876
                          4       1    1py               0.288875       0.301876
                          4       1    1pz               0.288875       0.301876

                          5       1    1dx2              0.318000       0.221644
                          5       1    1dxy              0.318000       0.383899
                          5       1    1dxz              0.318000       0.383899
                          5       1    1dy2              0.318000       0.221644
                          5       1    1dyz              0.318000       0.383899
                          5       1    1dz2              0.318000       0.221644

                          6       1    1s                0.576963       0.471815

                          7       1    1fx3              0.761000       0.796288
                          7       1    1fx2y             0.761000       1.780553
                          7       1    1fx2z             0.761000       1.780553
                          7       1    1fxy2             0.761000       1.780553
                          7       1    1fxyz             0.761000       3.084008
                          7       1    1fxz2             0.761000       1.780553
                          7       1    1fy3              0.761000       0.796288
                          7       1    1fy2z             0.761000       1.780553
                          7       1    1fyz2             0.761000       1.780553
                          7       1    1fz3              0.761000       0.796288

                          8       1    1px               2.378083       1.270923
                                                         0.814332       0.802572
                          8       1    1py               2.378083       1.270923
                                                         0.814332       0.802572
                          8       1    1pz               2.378083       1.270923
                                                         0.814332       0.802572

                          9       1    1dx2              1.097000       1.935401
                          9       1    1dxy              1.097000       3.352214
                          9       1    1dxz              1.097000       3.352214
                          9       1    1dy2              1.097000       1.935401
                          9       1    1dyz              1.097000       3.352214
                          9       1    1dz2              1.097000       1.935401

                         10       1    1s                2.576490       0.544758

                         11       1    1s         

     AE Potential information for                                            ALL

       Description:                                       All-electron potential
                                          Krack, Parrinello, PCCP 2, 2105 (2000)

       Gaussian exponent of the core charge distribution:               4.109048
       Electronic configuration (s p d ...):                           4   2   0

  2. Atomic kind: N                                     Number of atoms:       2

     Orbital Basis Set                                                 def2-TZVP

       Number of orbital shell sets:                                          11
       Number of orbital shells:                                              11
       Number of primitive Cartesian functions:                               20
       Number of Cartesian basis functions:                                   36
       Number of spherical basis functions:                                   31
       Norm type:                                                              2

       Normalised Cartesian orbitals:

                        Set   Shell   Orbital            Exponent    Coefficient

                          1       1    1s                0.136477       0.160031

                          2       1    1px               0.142608       0.124917
                          2       1    1py               0.142608       0.124917
                          2       1    1pz               0.142608       0.124917

                          3       1    1s                0.336471       0.314863

                          4       1    1px               0.416422       0.476823
                          4       1    1py               0.416422       0.476823
                          4       1    1pz               0.416422       0.476823

                          5       1    1dx2              0.469000       0.437484
                          5       1    1dxy              0.469000       0.757744
                          5       1    1dxz              0.469000       0.757744
                          5       1    1dy2              0.469000       0.437484
                          5       1    1dyz              0.469000       0.757744
                          5       1    1dz2              0.469000       0.437484

                          6       1    1s                0.846601       0.629027

                          7       1    1fx3              1.093000       1.798249
                          7       1    1fx2y             1.093000       4.021007
                          7       1    1fx2z             1.093000       4.021007
                          7       1    1fxy2             1.093000       4.021007
                          7       1    1fxyz             1.093000       6.964588
                          7       1    1fxz2             1.093000       4.021007
                          7       1    1fy3              1.093000       1.798249
                          7       1    1fy2z             1.093000       4.021007
                          7       1    1fyz2             1.093000       4.021007
                          7       1    1fz3              1.093000       1.798249

                          8       1    1px              49.200381       2.126481
                                                        11.346791       2.327937
                                                         3.427397       2.048573
                                                         1.178553       1.260732
                          8       1    1py              49.200381       2.126481
                                                        11.346791       2.327937
                                                         3.427397       2.048573
                                                         1.178553       1.260732
                          8       1    1pz              49.200381       2.126481
                                                        11.346791       2.327937
                                                         3.427397       2.048573
                                                         1.178553       1.260732

                          9       1    1dx2              1.654000       3.970513
                          9       1    1dxy              1.654000       6.877130
                          9       1    1dxz              1.654000       6.877130
                          9       1    1dy2              1.654000       3.970513
                          9       1    1dyz              1.654000       6.877130
                          9       1    1dz2              1.654000       3.970513

                         10       1    1s                8.979148       2.388068
                                                         3.686300       0.733788

                         11       1    1s            19730.800647       0.695604
                                                      2957.895874       1.298610
                                                       673.221336       2.219088
                                                       190.682495       3.463661
                                                        62.295442       4.696756
                                                        22.654161       4.952251

     RI Auxiliary Basis Set                                      def2-TZVP-RIFIT

       Number of orbital shell sets:                                          22
       Number of orbital shells:                                              22
       Number of primitive Cartesian functions:                               22
       Number of Cartesian basis functions:                                   86
       Number of spherical basis functions:                                   72
       Norm type:                                                              2

       Normalised Cartesian orbitals:

                        Set   Shell   Orbital            Exponent    Coefficient

                          1       1    1s                0.269072       0.266264

                          2       1    1px               0.335825       0.364403
                          2       1    1py               0.335825       0.364403
                          2       1    1pz               0.335825       0.364403

                          3       1    1dx2              0.350685       0.263035
                          3       1    1dxy              0.350685       0.455591
                          3       1    1dxz              0.350685       0.455591
                          3       1    1dy2              0.350685       0.263035
                          3       1    1dyz              0.350685       0.455591
                          3       1    1dz2              0.350685       0.263035

                          4       1    1s                0.637091       0.508231

                          5       1    1px               0.697694       0.908911
                          5       1    1py               0.697694       0.908911
                          5       1    1pz               0.697694       0.908911

                          6       1    1fx3              0.809476       0.914984
                          6       1    1fx2y             0.809476       2.045966
                          6       1    1fx2z             0.809476       2.045966
                          6       1    1fxy2             0.809476       2.045966
                          6       1    1fxyz             0.809476       3.543717
                          6       1    1fxz2             0.809476       2.045966
                          6       1    1fy3              0.809476       0.914984
                          6       1    1fy2z             0.809476       2.045966
                          6       1    1fyz2             0.809476       2.045966
                          6       1    1fz3              0.809476       0.914984

                          7       1    1dx2              0.859020       1.261582
                          7       1    1dxy              0.859020       2.185125
                          7       1    1dxz              0.859020       2.185125
                          7       1    1dy2              0.859020       1.261582
                          7       1    1dyz              0.859020       2.185125
                          7       1    1dz2              0.859020       1.261582

                          8       1    1s                1.372845       0.903912

                          9       1    1fx3              1.668650       4.658826
                          9       1    1fx2y             1.668650      10.417452
                          9       1    1fx2z             1.668650      10.417452
                          9       1    1fxy2             1.668650      10.417452
                          9       1    1fxyz             1.668650      18.043557
                          9       1    1fxz2             1.668650      10.417452
                          9       1    1fy3              1.668650       4.658826
                          9       1    1fy2z             1.668650      10.417452
                          9       1    1fyz2             1.668650      10.417452
                          9       1    1fz3              1.668650       4.658826

                         10       1    1px               1.675690       2.717580
                         10       1    1py               1.675690       2.717580
                         10       1    1pz               1.675690       2.717580

                         11       1    1dx2              2.091250       5.985769
                         11       1    1dxy              2.091250      10.367656
                         11       1    1dxz              2.091250      10.367656
                         11       1    1dy2              2.091250       5.985769
                         11       1    1dyz              2.091250      10.367656
                         11       1    1dz2              2.091250       5.985769

                         12       1    1fx3              3.468654      24.172222
                         12       1    1fx2y             3.468654      54.050731
                         12       1    1fx2z             3.468654      54.050731
                         12       1    1fxy2             3.468654      54.050731
                         12       1    1fxyz             3.468654      93.618612
                         12       1    1fxz2             3.468654      54.050731
                         12       1    1fy3              3.468654      24.172222
                         12       1    1fy2z             3.468654      54.050731
                         12       1    1fyz2             3.468654      54.050731
                         12       1    1fz3              3.468654      24.172222

                         13       1    1s                3.606548       1.865215

                         14       1    1px               3.969584       7.986774
                         14       1    1py               3.969584       7.986774
                         14       1    1pz               3.969584       7.986774

                         15       1    1dx2              5.029166      27.798888
                         15       1    1dxy              5.029166      48.149086
                         15       1    1dxz              5.029166      48.149086
                         15       1    1dy2              5.029166      27.798888
                         15       1    1dyz              5.029166      48.149086
                         15       1    1dz2              5.029166      27.798888

                         16       1    1px               8.669271      21.204025
                         16       1    1py               8.669271      21.204025
                         16       1    1pz               8.669271      21.204025

                         17       1    1s                9.067115       3.724020

                         18       1    1dx2             12.727173     141.153089
                         18       1    1dxy             12.727173     244.484323
                         18       1    1dxz             12.727173     244.484323
                         18       1    1dy2             12.727173     141.153089
                         18       1    1dyz             12.727173     244.484323
                         18       1    1dz2             12.727173     141.153089

                         19       1    1s               21.981132       7.235152

                         20       1    1px              34.121692     117.551530
                         20       1    1py              34.121692     117.551530
                         20       1    1pz              34.121692     117.551530

                         21       1    1s               62.030532      15.753034

                         22       1    1s              291.183943      50.238384

       Atomic covalent radius [Angstrom]:                                  0.750

       Atomic van der Waals radius [Angstrom]:                             1.550

     The atoms of this atomic kind are PAW atoms (GAPW):
       Hard Gaussian function radius:                                      1.512
       Rho0 radius:                                                        1.512
       Maximum GTO radius used for PAW projector construction:            24.566

     GAPW Soft Basis Set                                          def2-TZVP_soft

       Number of orbital shell sets:                                          11
       Number of orbital shells:                                              11
       Number of primitive Cartesian functions:                               11
       Number of Cartesian basis functions:                                   36
       Number of spherical basis functions:                                   31
       Norm type:                                                              2

       Normalised Cartesian orbitals:

                        Set   Shell   Orbital            Exponent    Coefficient

                          1       1    1s                0.136477       0.160031

                          2       1    1px               0.142608       0.124917
                          2       1    1py               0.142608       0.124917
                          2       1    1pz               0.142608       0.124917

                          3       1    1s                0.336471       0.314863

                          4       1    1px               0.416422       0.476823
                          4       1    1py               0.416422       0.476823
                          4       1    1pz               0.416422       0.476823

                          5       1    1dx2              0.469000       0.437484
                          5       1    1dxy              0.469000       0.757744
                          5       1    1dxz              0.469000       0.757744
                          5       1    1dy2              0.469000       0.437484
                          5       1    1dyz              0.469000       0.757744
                          5       1    1dz2              0.469000       0.437484

                          6       1    1s                0.846601       0.629027

                          7       1    1fx3              1.093000       1.798249
                          7       1    1fx2y             1.093000       4.021007
                          7       1    1fx2z             1.093000       4.021007
                          7       1    1fxy2             1.093000       4.021007
                          7       1    1fxyz             1.093000       6.964588
                          7       1    1fxz2             1.093000       4.021007
                          7       1    1fy3              1.093000       1.798249
                          7       1    1fy2z             1.093000       4.021007
                          7       1    1fyz2             1.093000       4.021007
                          7       1    1fz3              1.093000       1.798249

                          8       1    1px               3.427397       2.048573
                                                         1.178553       1.260732
                          8       1    1py               3.427397       2.048573
                                                         1.178553       1.260732
                          8       1    1pz               3.427397       2.048573
                                                         1.178553       1.260732

                          9       1    1dx2              1.654000       3.970513
                          9       1    1dxy              1.654000       6.877130
                          9       1    1dxz              1.654000       6.877130
                          9       1    1dy2              1.654000       3.970513
                          9       1    1dyz              1.654000       6.877130
                          9       1    1dz2              1.654000       3.970513

                         10       1    1s                3.686300       0.733788

                         11       1    1s         

     AE Potential information for                                            ALL

       Description:                                       All-electron potential
                                          Krack, Parrinello, PCCP 2, 2105 (2000)

       Gaussian exponent of the core charge distribution:               5.979100
       Electronic configuration (s p d ...):                           4   3   0

  3. Atomic kind: H                                     Number of atoms:       8

     Orbital Basis Set                                                 def2-TZVP

       Number of orbital shell sets:                                           4
       Number of orbital shells:                                               4
       Number of primitive Cartesian functions:                                6
       Number of Cartesian basis functions:                                    6
       Number of spherical basis functions:                                    6
       Norm type:                                                              2

       Normalised Cartesian orbitals:

                        Set   Shell   Orbital            Exponent    Coefficient

                          1       1    1s                0.103072       0.129648

                          2       1    1s                0.327230       0.308355

                          3       1    1px               0.800000       1.078456
                          3       1    1py               0.800000       1.078456
                          3       1    1pz               0.800000       1.078456

                          4       1    1s               34.061341       0.255630
                                                         5.123575       0.461360
                                                         1.164663       0.681121

     RI Auxiliary Basis Set                                      def2-TZVP-RIFIT

       Number of orbital shell sets:                                           7
       Number of orbital shells:                                               7
       Number of primitive Cartesian functions:                                7
       Number of Cartesian basis functions:                                   13
       Number of spherical basis functions:                                   13
       Norm type:                                                              2

       Normalised Cartesian orbitals:

                        Set   Shell   Orbital            Exponent    Coefficient

                          1       1    1s                0.264481       0.262849

                          2       1    1s                0.595125       0.482910

                          3       1    1px               0.595224       0.745230
                          3       1    1py               0.595224       0.745230
                          3       1    1pz               0.595224       0.745230

                          4       1    1px               1.354038       2.081991
                          4       1    1py               1.354038       2.081991
                          4       1    1pz               1.354038       2.081991

                          5       1    1s                1.861107       1.135635

                          6       1    1px               2.452498       4.374727
                          6       1    1py               2.452498       4.374727
                          6       1    1pz               2.452498       4.374727

                          7       1    1s                9.335216       3.806303

       Atomic covalent radius [Angstrom]:                                  0.320

       Atomic van der Waals radius [Angstrom]:                             1.090

     The atoms of this atomic kind are PAW atoms (GAPW):
       Hard Gaussian function radius:                                      1.200
       Rho0 radius:                                                        1.200
       Maximum GTO radius used for PAW projector construction:            24.566

     GAPW Soft Basis Set                                          def2-TZVP_soft

       Number of orbital shell sets:                                           4
       Number of orbital shells:                                               4
       Number of primitive Cartesian functions:                                5
       Number of Cartesian basis functions:                                    6
       Number of spherical basis functions:                                    6
       Norm type:                                                              2

       Normalised Cartesian orbitals:

                        Set   Shell   Orbital            Exponent    Coefficient

                          1       1    1s                0.103072       0.129648

                          2       1    1s                0.327230       0.308355

                          3       1    1px               0.800000       1.078456
                          3       1    1py               0.800000       1.078456
                          3       1    1pz               0.800000       1.078456

                          4       1    1s                5.123575       0.461360
                                                         1.164663       0.681121

     AE Potential information for                                            ALL

       Description:                                       All-electron potential
                                          Krack, Parrinello, PCCP 2, 2105 (2000)

       Gaussian exponent of the core charge distribution:              12.500000
       Electronic configuration (s p d ...):                           1   0   0


 MOLECULE KIND INFORMATION


 All atoms are their own molecule, skipping detailed information


 TOTAL NUMBERS AND MAXIMUM NUMBERS

  Total number of            - Atomic kinds:                                   3
                             - Atoms:                                         28
                             - Shell sets:                                   252
                             - Shells:                                       252
                             - Primitive Cartesian functions:                448
                             - Cartesian basis functions:                    768
                             - Spherical basis functions:                    668

  Maximum angular momentum of the orbital basis functions:                     3


 MODULE QUICKSTEP: ATOMIC COORDINATES IN ANGSTROM

   Atom Kind Element         X             Y             Z       Z(eff)     Mass
      1    1 C     6     12.245819     17.956524     14.999918   6.0000  12.0107
      2    1 C     6     13.012233     19.100765     14.999921   6.0000  12.0107
      3    1 C     6     14.169333     19.532044     14.999937   6.0000  12.0107
      4    1 C     6     12.939687     16.741813     14.999955   6.0000  12.0107
      5    1 C     6     14.337324     16.594294     14.999965   6.0000  12.0107
      6    1 C     6     15.356890     17.551302     14.999964   6.0000  12.0107
      7    1 C     6     15.447089     19.014418     14.999959   6.0000  12.0107
      8    1 C     6     16.809260     19.325092     15.000108   6.0000  12.0107
      9    1 C     6     16.655090     17.016905     14.999908   6.0000  12.0107
     10    1 C     6     17.542388     18.105290     14.999802   6.0000  12.0107
     11    1 C     6     15.072623     15.301285     14.999957   6.0000  12.0107
     12    1 C     6     16.513167     15.570467     14.999947   6.0000  12.0107
     13    2 N     7     14.568577     14.109640     14.999967   7.0000  14.0067
     14    2 N     7     17.396300     14.614444     14.999931   7.0000  14.0067
     15    1 C     6     15.482200     13.082251     14.999965   6.0000  12.0107
     16    1 C     6     16.887210     13.338630     14.999944   6.0000  12.0107
     17    1 C     6     15.019689     11.754102     14.999986   6.0000  12.0107
     18    1 C     6     15.912163     10.707339     14.999983   6.0000  12.0107
     19    1 C     6     17.296459     10.957388     14.999960   6.0000  12.0107
     20    1 C     6     17.775529     12.247441     14.999940   6.0000  12.0107
     21    3 H     1     13.949982     11.589881     15.000002   1.0000   1.0079
     22    3 H     1     15.550805      9.687197     14.999998   1.0000   1.0079
     23    3 H     1     17.989656     10.125886     14.999958   1.0000   1.0079
     24    3 H     1     18.836585     12.459568     14.999921   1.0000   1.0079
     25    3 H     1     17.241290     20.312803     15.000254   1.0000   1.0079
     26    3 H     1     18.620955     18.046036     14.999746   1.0000   1.0079
     27    3 H     1     12.362167     15.824243     14.999942   1.0000   1.0079
     28    3 H     1     11.163415     17.960081     14.999879   1.0000   1.0079



 SCF PARAMETERS         Density guess:                                    ATOMIC
                        --------------------------------------------------------
                        max_scf:                                             500
                        max_scf_history:                                       0
                        max_diis:                                              4
                        --------------------------------------------------------
                        eps_scf:                                        1.00E-06
                        eps_scf_history:                                0.00E+00
                        eps_diis:                                       1.00E-01
                        eps_eigval:                                     1.00E-05
                        --------------------------------------------------------
                        level_shift [a.u.]:                             0.000000
                        added MOs                                       603    0
                        --------------------------------------------------------
                        Mixing method:                            BROYDEN_MIXING
                                                charge density mixing in g-space
                        --------------------------------------------------------
                        No outer SCF

 PW_GRID| Information for grid number                                          1
 PW_GRID| Grid distributed over                                    48 processors
 PW_GRID| Real space group dimensions                                    48    1
 PW_GRID| the grid is blocked:                                                NO
 PW_GRID| Cutoff [a.u.]                                                    500.0
 PW_GRID| spherical cutoff:                                                   NO
 PW_GRID|   Bounds   1           -288     287                Points:         576
 PW_GRID|   Bounds   2           -288     287                Points:         576
 PW_GRID|   Bounds   3           -288     287                Points:         576
 PW_GRID| Volume element (a.u.^3)  0.9534E-03     Volume (a.u.^3)    182205.0337
 PW_GRID| Grid span                                                    FULLSPACE
 PW_GRID|   Distribution                         Average         Max         Min
 PW_GRID|   G-Vectors                          3981312.0     3981312     3981312
 PW_GRID|   G-Rays                                6912.0        6912        6912
 PW_GRID|   Real Space Points                  3981312.0     3981312     3981312

 PW_GRID| Information for grid number                                          2
 PW_GRID| Number of the reference grid                                         1
 PW_GRID| Grid distributed over                                    48 processors
 PW_GRID| Real space group dimensions                                    48    1
 PW_GRID| the grid is blocked:                                                NO
 PW_GRID| Cutoff [a.u.]                                                    166.7
 PW_GRID| spherical cutoff:                                                   NO
 PW_GRID|   Bounds   1           -180     179                Points:         360
 PW_GRID|   Bounds   2           -180     179                Points:         360
 PW_GRID|   Bounds   3           -180     179                Points:         360
 PW_GRID| Volume element (a.u.^3)  0.3905E-02     Volume (a.u.^3)    182205.0337
 PW_GRID| Grid span                                                    FULLSPACE
 PW_GRID|   Distribution                         Average         Max         Min
 PW_GRID|   G-Vectors                           972000.0      972720      971640
 PW_GRID|   G-Rays                                2700.0        2702        2699
 PW_GRID|   Real Space Points                   972000.0     1036800      907200

 PW_GRID| Information for grid number                                          3
 PW_GRID| Number of the reference grid                                         1
 PW_GRID| Grid distributed over                                    48 processors
 PW_GRID| Real space group dimensions                                    48    1
 PW_GRID| the grid is blocked:                                                NO
 PW_GRID| Cutoff [a.u.]                                                     55.6
 PW_GRID| spherical cutoff:                                                   NO
 PW_GRID|   Bounds   1            -96      95                Points:         192
 PW_GRID|   Bounds   2            -96      95                Points:         192
 PW_GRID|   Bounds   3            -96      95                Points:         192
 PW_GRID| Volume element (a.u.^3)  0.2574E-01     Volume (a.u.^3)    182205.0337
 PW_GRID| Grid span                                                    FULLSPACE
 PW_GRID|   Distribution                         Average         Max         Min
 PW_GRID|   G-Vectors                           147456.0      147648      147264
 PW_GRID|   G-Rays                                 768.0         769         767
 PW_GRID|   Real Space Points                   147456.0      147456      147456

 PW_GRID| Information for grid number                                          4
 PW_GRID| Number of the reference grid                                         1
 PW_GRID| Grid distributed over                                    48 processors
 PW_GRID| Real space group dimensions                                    48    1
 PW_GRID| the grid is blocked:                                                NO
 PW_GRID| Cutoff [a.u.]                                                     18.5
 PW_GRID| spherical cutoff:                                                   NO
 PW_GRID|   Bounds   1            -60      59                Points:         120
 PW_GRID|   Bounds   2            -60      59                Points:         120
 PW_GRID|   Bounds   3            -60      59                Points:         120
 PW_GRID| Volume element (a.u.^3)  0.1054         Volume (a.u.^3)    182205.0337
 PW_GRID| Grid span                                                    FULLSPACE
 PW_GRID|   Distribution                         Average         Max         Min
 PW_GRID|   G-Vectors                            36000.0       36240       35880
 PW_GRID|   G-Rays                                 300.0         302         299
 PW_GRID|   Real Space Points                    36000.0       43200       28800

 POISSON| Solver                                                         WAVELET
 POISSON| Wavelet| Scaling function                                           40
 POISSON| Periodicity                                                       NONE

 RS_GRID| Information for grid number                                          1
 RS_GRID|   Bounds   1           -288     287                Points:         576
 RS_GRID|   Bounds   2           -288     287                Points:         576
 RS_GRID|   Bounds   3           -288     287                Points:         576
 RS_GRID| Real space distribution over                                  3 groups
 RS_GRID| Real space distribution along direction                              1
 RS_GRID| Border size                                                         34
 RS_GRID| Real space distribution over                                  4 groups
 RS_GRID| Real space distribution along direction                              2
 RS_GRID| Border size                                                         34
 RS_GRID| Real space distribution over                                  4 groups
 RS_GRID| Real space distribution along direction                              3
 RS_GRID| Border size                                                         34
 RS_GRID|   Distribution                         Average         Max         Min
 RS_GRID|   Planes                                 260.0         260         260
 RS_GRID|   Distribution                         Average         Max         Min
 RS_GRID|   Planes                                 212.0         212         212
 RS_GRID|   Distribution                         Average         Max         Min
 RS_GRID|   Planes                                 212.0         212         212

 RS_GRID| Information for grid number                                          2
 RS_GRID|   Bounds   1           -180     179                Points:         360
 RS_GRID|   Bounds   2           -180     179                Points:         360
 RS_GRID|   Bounds   3           -180     179                Points:         360
 RS_GRID| Real space distribution over                                  3 groups
 RS_GRID| Real space distribution along direction                              1
 RS_GRID| Border size                                                         38
 RS_GRID| Real space distribution over                                  4 groups
 RS_GRID| Real space distribution along direction                              2
 RS_GRID| Border size                                                         38
 RS_GRID| Real space distribution over                                  4 groups
 RS_GRID| Real space distribution along direction                              3
 RS_GRID| Border size                                                         38
 RS_GRID|   Distribution                         Average         Max         Min
 RS_GRID|   Planes                                 196.0         196         196
 RS_GRID|   Distribution                         Average         Max         Min
 RS_GRID|   Planes                                 166.0         166         166
 RS_GRID|   Distribution                         Average         Max         Min
 RS_GRID|   Planes                                 166.0         166         166

 RS_GRID| Information for grid number                                          3
 RS_GRID|   Bounds   1            -96      95                Points:         192
 RS_GRID|   Bounds   2            -96      95                Points:         192
 RS_GRID|   Bounds   3            -96      95                Points:         192
 RS_GRID| Real space fully replicated
 RS_GRID| Group size                                                           1

 RS_GRID| Information for grid number                                          4
 RS_GRID|   Bounds   1            -60      59                Points:         120
 RS_GRID|   Bounds   2            -60      59                Points:         120
 RS_GRID|   Bounds   3            -60      59                Points:         120
 RS_GRID| Real space fully replicated
 RS_GRID| Group size                                                           1

  HFX_INFO| Replica ID:                                                        1
  HFX_INFO| FRACTION:                                               0.2000000000
  HFX_INFO| Interaction Potential:                                       COULOMB
  HFX_INFO| EPS_SCHWARZ:                                                 1.0E-10
  HFX_INFO| EPS_SCHWARZ_FORCES                                           1.0E-08
  HFX_INFO| EPS_STORAGE_SCALING:                                         1.0E+00
  HFX_INFO| NBINS:                                                            64
  HFX_INFO| BLOCK_SIZE:                                                        1
  HFX_INFO| Number of periodic shells considered:                           NONE
  HFX_INFO| Number of periodic cells considered:                            NONE

 
 RI-RPA| using GPW style
 

 *** WARNING in qs_scf_initialization.F:1037 :: The numerical rank of the  ***
 *** overlap matrix is lower than the number of requested MOs! Reduce the  ***
 *** number of MOs to the number of available MOs. If necessary, request a ***
 *** lower number of MOs or increase EPS_DEFAULT or EPS_PGF_ORB.           ***


 Extrapolation method: initial_guess

 Atomic guess: The first density matrix is obtained in terms of atomic orbitals
               and electronic configurations assigned to each atomic kind

 Guess for atomic kind: C

 Electronic structure
    Total number of core electrons                                          0.00
    Total number of valence electrons                                       6.00
    Total number of electrons                                               6.00
    Multiplicity                                                   not specified
    S      2.00  2.00
    P      2.00


 *******************************************************************************
                  Iteration          Convergence                     Energy [au]
 *******************************************************************************
                          1        0.147208                     -37.407693601264
                          2        0.119028                     -37.412727810384
                          3        0.151591E-02                 -37.421609589284
                          4        0.252468E-03                 -37.421611675915
                          5        0.320487E-05                 -37.421611714904
                          6        0.162446E-06                 -37.421611714918

 Energy components [Hartree]           Total Energy ::          -37.421611714918
                                        Band Energy ::          -21.277675770449
                                     Kinetic Energy ::           37.196286588355
                                   Potential Energy ::          -74.617898303274
                                      Virial (-V/T) ::            2.006057731758
                                        Core Energy ::          -50.332032480142
                                          XC Energy ::           -4.732819490143
                                     Coulomb Energy ::           17.643240255367

 Orbital energies  State     L     Occupation   Energy[a.u.]          Energy[eV]

                       1     0          2.000      -9.943251         -270.569607
                       2     0          2.000      -0.498684          -13.569893

                       1     1          2.000      -0.196903           -5.358002


 Total Electron Density at R=0:                                       121.622713

 Guess for atomic kind: N

 Electronic structure
    Total number of core electrons                                          0.00
    Total number of valence electrons                                       7.00
    Total number of electrons                                               7.00
    Multiplicity                                                   not specified
    S      2.00  2.00
    P      3.00


 *******************************************************************************
                  Iteration          Convergence                     Energy [au]
 *******************************************************************************
                          1        0.380519                     -53.980466341384
                          2        0.378247                     -53.984135962459
                          3        0.134995E-01                 -54.018715315788
                          4        0.495764E-03                 -54.018772519246
                          5        0.432099E-04                 -54.018772571804
                          6        0.442273E-07                 -54.018772572302

 Energy components [Hartree]           Total Energy ::          -54.018772572302
                                        Band Energy ::          -30.143749938617
                                     Kinetic Energy ::           53.734490267735
                                   Potential Energy ::         -107.753262840037
                                      Virial (-V/T) ::            2.005290499699
                                        Core Energy ::          -73.699523175202
                                          XC Energy ::           -6.145173260726
                                     Coulomb Energy ::           25.825923863626

 Orbital energies  State     L     Occupation   Energy[a.u.]          Energy[eV]

                       1     0          2.000     -14.006310         -381.131070
                       2     0          2.000      -0.672190          -18.291221

                       1     1          3.000      -0.262250           -7.136190


 Total Electron Density at R=0:                                       197.177759

 Guess for atomic kind: H

 Electronic structure
    Total number of core electrons                                          0.00
    Total number of valence electrons                                       1.00
    Total number of electrons                                               1.00
    Multiplicity                                                   not specified
    S      1.00


 *******************************************************************************
                  Iteration          Convergence                     Energy [au]
 *******************************************************************************
                          1        0.917598E-02                  -0.444895232610
                          2        0.101733E-02                  -0.444969959338
                          3        0.739292E-04                  -0.444971980690
                          4        0.601377E-07                  -0.444971989573

 Energy components [Hartree]           Total Energy ::           -0.444971989573
                                        Band Energy ::           -0.230448725171
                                     Kinetic Energy ::            0.428990089350
                                   Potential Energy ::           -0.873962078923
                                      Virial (-V/T) ::            2.037254707321
                                        Core Energy ::           -0.496265746842
                                          XC Energy ::           -0.234272986041
                                     Coulomb Energy ::            0.285566743311

 Orbital energies  State     L     Occupation   Energy[a.u.]          Energy[eV]

                       1     0          1.000      -0.230449           -6.270829


 Total Electron Density at R=0:                                         0.247098
 Re-scaling the density matrix to get the right number of electrons
                  # Electrons              Trace(P)               Scaling factor
                          130               130.000                        1.000

 Number of electrons:                                                        130
 Number of occupied orbitals:                                                 65
 Number of molecular orbitals:                                               665

 Number of orbital functions:                                                668
 Number of independent orbital functions:                                    665


 SCF WAVEFUNCTION OPTIMIZATION

  Step     Update method      Time    Convergence         Total energy    Change
  ------------------------------------------------------------------------------

  HFX_MEM_INFO| Est. max. program size before HFX [MiB]:                    3165
  HFX_MEM_INFO| Number of cart. primitive ERI's calculated:          59153798858
  HFX_MEM_INFO| Number of sph. ERI's calculated:                     14487851605
  HFX_MEM_INFO| Number of sph. ERI's stored in-core:                 14487851605
  HFX_MEM_INFO| Number of sph. ERI's stored on disk:                           0
  HFX_MEM_INFO| Number of sph. ERI's calculated on the fly:                    0
  HFX_MEM_INFO| Total memory consumption ERI's RAM [MiB]:                  36746
  HFX_MEM_INFO| Whereof max-vals [MiB]:                                      152
  HFX_MEM_INFO| Total compression factor ERI's RAM:                         3.01
  HFX_MEM_INFO| Total memory consumption ERI's disk [MiB]:                     0
  HFX_MEM_INFO| Total compression factor ERI's disk:                        0.00
  HFX_MEM_INFO| Size of density/Fock matrix [MiB]:                             2
  HFX_MEM_INFO| Size of buffers [MiB]:                                         1
  HFX_MEM_INFO| Est. max. program size after HFX  [MiB]:                    4185

     1 NoMix/Diag. 0.10E+00   10.3     0.37086296      -806.0832747139 -8.06E+02
     2 Broy./Diag. 0.10E+00    4.7     0.06441602      -788.5232942939  1.76E+01
     3 Broy./Diag. 0.10E+00    4.7     0.01710490      -789.9555404160 -1.43E+00
     4 Broy./Diag. 0.10E+00    4.7     0.06548180      -794.4776705272 -4.52E+00
     5 Broy./Diag. 0.10E+00    4.8     0.02373529      -798.0681874284 -3.59E+00
[...]
 Parallel Comput. 40, 47-58 (2014).
 Sparse matrix multiplication: The distributed block-compressed sparse row 
 library.
 https://doi.org/10.1016/j.parco.2014.03.012

 A. Marek, V. Blum, R. Johanni, V. Havu, B. Lang, T. Auckenthaler, A. Heinecke, 
 H. Bungartz, H. Lederer.
 J. Phys. Condens. Matter 26, 213201 (2014).
 The ELPA library: scalable parallel eigenvalue solutions for electronic 
 structure theory and computational science.
 https://doi.org/10.1088/0953-8984/26/21/213201

 M. Del Ben, J. Hutter, J. VandeVondele.
 J. Chem. Theory Comput. 9, 2654-2671 (2013).
 Electron Correlation in the Condensed Phase from a Resolution of Identity 
 Approach Based on the Gaussian and Plane Waves Scheme.
 https://doi.org/10.1021/ct4002202

 M. Del Ben, J. Hutter, J. VandeVondele.
 J. Chem. Theory Comput. 8, 4177-4188 (2012).
 Second-Order Moller-Plesset Perturbation Theory in the Condensed Phase: An 
 Efficient and Massively Parallel Gaussian and Plane Waves Approach.
 https://doi.org/10.1021/ct300531w

 M. Guidon, J. Hutter, J. VandeVondele.
 J. Chem. Theory Comput. 5, 3010-3021 (2009).
 Robust Periodic Hartree-Fock Exchange for Large-Scale Simulations Using 
 Gaussian Basis Sets.
 https://doi.org/10.1021/ct900494g

 M. Guidon, F. Schiffmann, J. Hutter, J. VandeVondele.
 J. Chem. Phys. 128, 214104 (2008).
 Ab initio molecular dynamics using hybrid density functionals.
 https://doi.org/10.1063/1.2931945

 L. Genovese, T. Deutsch, S. Goedecker.
 J. Chem. Phys. 127, 054704 (2007).
 Efficient and accurate three-dimensional Poisson solver for surface problems.
 https://doi.org/10.1063/1.2754685

 L. Genovese, T. Deutsch, A. Neelov, S. Goedecker, G. Beylkin.
 J. Chem. Phys. 125, 074105 (2006).
 Efficient solution of Poisson's equation with free boundary conditions.
 https://doi.org/10.1063/1.2335442

 M. Frigo, S. G. Johnson.
 Proc. IEEE 93, 216-231 (2005).
 The design and implementation of FFTW3.
 https://doi.org/10.1109/JPROC.2004.840301

 M. Krack, M. Parrinello.
 Phys. Chem. Chem. Phys. 2, 2105-2112 (2000).
 All-electron ab-initio molecular dynamics.
 https://doi.org/10.1039/b001167n

 G. Lippert, J. Hutter, M. Parrinello.
 Theor. Chem. Acc. 103, 124-140 (1999).
 The Gaussian and augmented-plane-wave density functional method for ab initio 
 molecular dynamics simulations.
 https://doi.org/10.1007/s002140050523

 A. D. Becke.
 Phys. Rev. A 38, 3098-3100 (1988).
 Density-functional exchange-energy approximation with correct asymptotic 
 behavior.
 https://doi.org/10.1103/PhysRevA.38.3098

 C. T. Lee, W. T. Yang, R. G. Parr.
 Phys. Rev. B 37, 785-789 (1988).
 Development of the Colle-Salvetti correlation-energy formula into a functional 
 of the electron density.
 https://doi.org/10.1103/PhysRevB.37.785

 S. H. Vosko, L. Wilk, M. Nusair.
 Can. J. Phys. 58, 1200-1211 (1980).
 Accurate spin-dependent electron liquid correlation energies for local spin 
 density calculations: a critical analysis.
 https://doi.org/10.1139/p80-159


 -------------------------------------------------------------------------------
 -                                                                             -
 -                                T I M I N G                                  -
 -                                                                             -
 -------------------------------------------------------------------------------
 SUBROUTINE                       CALLS  ASD         SELF TIME        TOTAL TIME
                                MAXIMUM       AVERAGE  MAXIMUM  AVERAGE  MAXIMUM
 CP2K                                 1  1.0    0.082    0.086  371.733  371.751
 qs_energies                          1  2.0    0.001    0.006  370.897  370.918
 scf_env_do_scf                       1  3.0    0.001    0.001  322.181  322.197
 scf_env_do_scf_inner_loop           63  4.0    0.003    0.004  322.181  322.196
 qs_ks_build_kohn_sham_matrix        64  7.0    0.019    0.021  244.471  244.485
 qs_ks_update_qs_env                 63  5.0    0.001    0.001  242.159  242.173
 rebuild_ks_matrix                   63  6.0    0.000    0.000  242.154  242.169
 fft_wrap_pw1pw2                   1435  9.7    0.026    0.028  161.232  163.008
 fft_wrap_pw1pw2_500                991 11.0    6.416    6.990  156.075  157.617
 fft3d_ps                          1435 11.7   84.729   86.730  126.613  130.375
 qs_vxc_create                       64  8.0    0.001    0.004   88.081   89.012
 xc_vxc_pw_create                    63  9.0    1.227    1.365   88.080   89.008
 xc_pw_derive                       378 11.0    0.003    0.004   66.147   68.036
 pw_poisson_solve                    64  8.0    2.139    2.317   67.093   67.212
 xc_rho_set_and_dset_create          63 10.0    1.712    2.076   45.093   46.087
 qs_rho_update_rho_low               64  5.0    0.002    0.002   42.626   42.629
 calculate_rho_elec                  64  6.0    0.478    0.509   42.478   42.481
 xc_pw_divergence                    63 10.0    0.002    0.002   40.692   41.598
 gspace_mixing                       62  5.0    0.464    0.496   36.749   36.751
 ps_wavelet_solve                    64  9.0   29.672   32.091   34.859   35.299
 hfx_ks_matrix                       64  8.0    0.002    0.002   35.152   35.183
 integrate_four_center               64  9.0    1.229    1.309   35.147   35.179
 integrate_four_center_main          64 10.0    0.106    0.252   31.369   32.365
 integrate_four_center_bin         6193 11.0   31.262   32.300   31.262   32.300
 density_rs2pw                       64  7.0    0.003    0.004   29.768   31.042
 mp_alltoall_z22v                  1435 13.7   22.229   28.378   22.229   28.378
 mp_alltoall_d54                     64 10.0    3.232   27.787    3.232   27.787
 mp2_main                             1  3.0    0.000    0.000   27.357   27.366
 x_to_yz                            718 13.0   11.814   12.689   24.605   26.448
 mp2_gpw_main                         1  4.0    0.000    0.001   24.924   24.925
 broyden_mixing                      62  6.0   23.925   24.324   24.372   24.440
 rpa_ri_compute_en                    1  5.0    0.000    0.000   23.347   23.348
 rpa_num_int                          1  6.0    0.008    0.008   23.250   23.251
 sum_up_and_integrate                64  8.0    0.001    0.002   21.454   21.460
 integrate_v_rspace                  64  9.0    0.002    0.002   20.924   21.008
 scf_post_calculation_gpw             1  3.0    0.000    0.000   20.375   20.377
 yz_to_x                            717 12.5    7.805    8.007   17.243   20.262
 parallel_gemm_fm_cosma             380  8.6   19.767   19.855   19.767   19.855
 potential_pw2rs                     64 10.0    0.027    0.031   17.688   17.768
 rpa_num_int_RPA_matrix_operati     125  7.0    0.001    0.008   14.979   15.020
 calc_mat_Q                         125  8.0    0.001    0.001   14.292   14.378
 contract_S_to_Q                    125  9.0    0.001    0.002   13.874   13.974
 grid_collocate_task_list            64  7.0   11.709   13.635   11.709   13.635
 prepare_gapw_den                    64  8.0    0.001    0.001   13.403   13.575
 put_rho0_on_grid                    64  9.0    0.472    0.529   12.884   13.055
 transfer_rs2pw                     401  8.1    0.006    0.008   11.311   12.656
 pw_gather_p                        717 11.5   11.245   11.785   11.245   11.785
 transfer_pw2rs                     321 10.6    0.004    0.005   10.370   10.425
 pw_to_cube                          20  5.0    8.733    8.994    9.558   10.285
 qs_scf_post_unocc_cubes              1  4.0    0.578    0.867   10.198   10.198
 qs_scf_post_occ_cubes                1  4.0    0.604    0.850   10.033   10.033
 pw_scatter_p                       718 12.0    9.705    9.914    9.705    9.914
 calculate_wavefunction              20  5.0    0.047    0.143    9.491    9.638
 pw_derive                          570 11.3    8.997    9.629    8.997    9.629
 collocate_function                  20  6.0    0.014    0.059    9.444    9.621
 transfer_rs2pw_500                 149  9.7    3.410    3.716    7.608    8.966
 mp_waitany                        9372 11.2    7.826    8.818    7.826    8.818
 compute_GW_self_energy             125  7.0    0.004    0.010    8.047    8.195
 transfer_pw2rs_500                 129 10.9    3.274    3.513    7.018    7.240
 compute_GW_self_energy_deep        125  8.0    0.559    0.568    6.478    6.540
 mp_sum_d                          1505  6.1    2.606    5.903    2.606    5.903
 pw_copy_to_array                   717 11.5    4.536    5.326    4.536    5.326
 pw_copy                            955 10.6    4.936    5.283    4.936    5.283
 fft_wrap_pw1pw2_170                148 10.1    0.241    0.340    4.219    5.135
 integrate_vhg0_rspace               64  8.0    0.148    0.183    5.125    5.130
 mp_alltoall_d11v                  1444  9.6    4.092    4.597    4.092    4.597
 pw_poisson_set                      65  8.9    0.002    0.002    4.392    4.512
 pw_axpy                            715  9.0    3.862    4.174    3.862    4.174
 cp2k_distribution_to_z_slices       64  9.0    1.995    2.207    3.119    3.910
 xc_functional_eval                1260 10.5    0.003    0.004    3.065    3.740
 rs_grid_zero                       402 10.3    3.109    3.261    3.109    3.261
 grid_integrate_task_list            64 10.0    0.367    3.225    0.367    3.225
 rs_gather_matrices                  64 10.0    0.002    0.003    2.867    3.093
 pw_copy_from_array                 718 12.0    2.423    2.938    2.423    2.938
 mp_sync                            800  9.2    1.693    2.345    1.693    2.345
 compute_vec_Sigma_x_minus_vxc_       1  4.0    0.000    0.000    2.320    2.320
 mp_waitall_1                     22200 12.0    1.465    2.204    1.465    2.204
 mp_max_i                           602  2.7    0.596    1.950    0.596    1.950
 transfer_rs2pw_170                  84  8.8    0.676    0.816    1.666    1.860
 pw_zero                            400 10.2    1.631    1.799    1.631    1.799
 transfer_rs2pw_60                   84  8.8    0.990    1.024    1.674    1.756
 mp_alltoall_d45                     65 10.0    1.475    1.749    1.475    1.749
 transfer_pw2rs_170                  64 12.0    0.601    0.644    1.538    1.719
 transfer_pw2rs_60                   64 12.0    0.937    1.066    1.484    1.637
 mp2_ri_gpw_compute_in                1  5.0    0.001    0.002    1.569    1.569
 mp2_ri_gpw_compute_in_loop           1  6.0    0.000    0.001    1.533    1.533
 pw_integral_ab_c1d_c1d_gs           64  9.0    0.936    0.981    1.155    1.466
 mp_sum_dm                         5443  7.6    0.789    1.383    0.789    1.383
 vwn_lda_eval                       315 11.5    1.167    1.360    1.167    1.360
 qs_scf_new_mos                      63  5.0    0.003    0.003    1.348    1.356
 mp2_eri_3c_integrate                 1  7.0    0.100    0.154    1.058    1.213
 eigensolver_symm                    64  6.0    0.005    0.006    1.200    1.203
 integrate_set_3c                472374  8.0    0.696    0.836    0.958    1.135
 xb88_lda_eval                      315 11.5    0.922    1.063    0.922    1.063
 fft_wrap_pw1pw2_60                 148 10.1    0.020    0.026    0.778    1.001
 cp_fm_diag_elpa                     66  6.9    0.000    0.000    0.997    1.001
 pw_poisson_rebuild                  64  9.0    0.000    0.000    0.976    0.995
 ps_wavelet_create                    1 10.0    0.000    0.000    0.976    0.995
 RS_z_slice_distribution              1 11.0    0.915    0.953    0.976    0.995
 mp_file_write_all_chv               20  6.0    0.245    0.972    0.245    0.972
 mp_sendrecv_dv                    7896  9.8    0.899    0.966    0.899    0.966
 cp_fm_redistribute_end              66  7.9    0.491    0.958    0.494    0.959
 init_scf_run                         1  3.0    0.002    0.003    0.934    0.935
 cp_fm_cholesky_invert              125  8.0    0.907    0.927    0.907    0.927
 cp_fm_diag_elpa_base                66  7.9    0.448    0.899    0.458    0.921
 scf_env_initial_rho_setup            1  4.0    0.001    0.001    0.885    0.886
 lyp_lda_eval                       315 11.5    0.649    0.867    0.649    0.867
 calc_screening_functions             1 10.0    0.340    0.367    0.792    0.816
 powell_optimize                 833532 11.0    0.759    0.781    0.759    0.781
 pw_scale                           253  9.5    0.582    0.653    0.582    0.653
 scale_and_distribute               128 10.0    0.541    0.645    0.541    0.645
 cp_fm_cholesky_decompose           126  9.0    0.599    0.627    0.599    0.627
 compute_Erpa_by_freq_int           125  8.0    0.004    0.020    0.604    0.627
 qs_init_subsys                       1  2.0    0.057    0.058    0.607    0.607
 qs_env_setup                         1  3.0    0.002    0.002    0.542    0.542
 qs_env_rebuild_pw_env                2  3.5    0.000    0.000    0.539    0.539
 pw_env_rebuild                       1  5.0    0.012    0.012    0.539    0.539
 contract_B_L                         2  7.0    0.011    0.014    0.356    0.539
 calculate_vxc_atom                  64  8.0    0.038    0.122    0.526    0.538
 mp_file_set_view_chv                20  6.0    0.383    0.537    0.383    0.537
 pw_grid_setup                        4  6.0    0.000    0.000    0.525    0.525
 pw_grid_setup_internal               4  7.0    0.007    0.008    0.525    0.525
 xalpha_lda_eval                    315 11.5    0.324    0.481    0.324    0.481
 pw_grid_sort                         4  8.0    0.311    0.316    0.450    0.458
 calc_pair_dist_radii                 1 10.0    0.137    0.140    0.445    0.453
 mp_sum_dv                          440  8.7    0.268    0.445    0.268    0.445
 calc_fm_mat_S_rpa                  125  9.0    0.417    0.427    0.417    0.427
 transfer_rs2pw_20                   84  8.8    0.142    0.152    0.356    0.393
 gaVxcgb_GC                         126  9.0    0.081    0.375    0.081    0.375
 cp_fm_uplo_to_full                 191  8.2    0.243    0.358    0.243    0.358
 transfer_pw2rs_20                   64 12.0    0.164    0.185    0.326    0.358
 mp_cart_create                     401  9.7    0.173    0.352    0.174    0.353
 dbt_pgrid_create_expert             42 10.8    0.000    0.002    0.161    0.341
 cp_fm_to_fm_submat_general         125 10.0    0.192    0.325    0.192    0.325
 abc_contract                    472374  9.0    0.262    0.299    0.262    0.299
 calculate_rho0_atom                192  9.0    0.263    0.281    0.263    0.281
 calculate_rho_atom                 192  9.0    0.140    0.257    0.140    0.257
 xc_pw_smooth                        63 10.0    0.000    0.000    0.196    0.224
 integrate_four_center_load          64 10.0    0.000    0.001    0.176    0.207
 hfx_load_balance                     1 11.0    0.000    0.000    0.176    0.206
 mp_bcast_l                          20  6.0    0.196    0.201    0.196    0.201
 dbcsr_multiply_generic             197  8.0    0.003    0.004    0.174    0.182
 dbt_total                            4  8.0    0.001    0.001    0.170    0.170
 fft_wrap_pw1pw2_20                 148 10.1    0.008    0.009    0.134    0.154
 dbt_contract                         2  9.0    0.001    0.001    0.150    0.151
 Q_trace_and_add_unit_matrix        125  8.0    0.004    0.010    0.069    0.149
 calculate_rho_atom_coeff            64  6.0    0.039    0.049    0.146    0.146
 write_available_results              1  4.0    0.001    0.002    0.144    0.145
 mixing_init                          1  5.0    0.139    0.144    0.144    0.145
 write_mo_free_results                1  5.0    0.015    0.015    0.143    0.143
 sort_shells                          4  9.0    0.140    0.142    0.140    0.142
 calculate_dm_sparse                 63  6.0    0.000    0.001    0.115    0.119
 cp_dbcsr_plus_fm_fm_t               63  7.0    0.000    0.001    0.114    0.118
 update_ks_atom                      64  8.0    0.035    0.040    0.110    0.115
 integrate_four_center_getP          64 10.0    0.016    0.019    0.078    0.110
 dbt_tas_multiply                     4 11.5    0.000    0.000    0.099    0.099
 dbt_tas_total                        4 12.5    0.000    0.001    0.099    0.099
 create_integ_mat                     2  6.0    0.001    0.001    0.094    0.094
 cp_fm_symm                          64  7.0    0.082    0.092    0.082    0.092
 mp_sum_l                           771  8.9    0.050    0.083    0.050    0.083
 offload_free_buffer                 72  8.3    0.076    0.083    0.076    0.083
 multiply_cannon                    197  9.0    0.006    0.007    0.073    0.080
 make_m2s                           394  9.0    0.002    0.002    0.076    0.079
 mp2_main_alloc_hfx                   1  4.0    0.068    0.076    0.068    0.076
 mp_bcast_dm                       3584  9.0    0.075    0.076    0.075    0.076
 hfx_load_balance_count               1 12.0    0.070    0.076    0.070    0.076
 dbcsr_complete_redistribute        261  8.4    0.013    0.017    0.068    0.075
 hfx_load_balance_bin                 1 12.0    0.069    0.074    0.069    0.074
 hirshfeld_integration                1  6.0    0.003    0.016    0.069    0.070
 copy_dbcsr_to_fm                   134  6.9    0.002    0.002    0.061    0.069
 create_qs_kind_set                   1  2.0    0.000    0.000    0.068    0.069
 read_qs_kind                         3  3.0    0.038    0.047    0.068    0.069
 dbt_tas_dbm                          4 13.5    0.000    0.000    0.069    0.069
 make_images                        394 10.0    0.014    0.017    0.064    0.066
 Vh_1c_gg_integrals                  64  8.0    0.013    0.051    0.059    0.066
 multiply_cannon_loop               197 10.0    0.002    0.002    0.059    0.065
 dbt_copy                             6 10.0    0.000    0.000    0.060    0.065
 array2fm                             2  7.0    0.000    0.000    0.061    0.064
 dbt_tas_mm_1N                        4 14.5    0.000    0.000    0.055    0.063
 dbm_multiply                         4 15.5    0.055    0.063    0.055    0.063
 cp_fm_redistribute_start            66  7.9    0.035    0.045    0.045    0.059
 calculate_hirshfeld_normalizat       1  6.0    0.003    0.016    0.057    0.059
 ao_to_mo_and_store_B_mult_1         33  7.0    0.000    0.000    0.049    0.056
 hfx_load_balance_range               1 12.0    0.000    0.001    0.024    0.053
 integrate_four_center_dist_KS       64 10.0    0.010    0.012    0.050    0.051
 multiply_cannon_multrec            912 10.9    0.043    0.050    0.043    0.050
 rs_scatter_matrices                 64  7.0    0.001    0.002    0.024    0.048
 ao_to_mo_and_store_B_mult_gw_1      33  7.0    0.000    0.000    0.045    0.047
 dbt_reshape                          4 11.5    0.008    0.025    0.044    0.047
 qs_energies_init_hamiltonians        1  3.0    0.007    0.007    0.047    0.047
 pw_grid_assign                       4  8.0    0.040    0.042    0.042    0.042
 copy_fm_to_dbcsr                   127  8.0    0.000    0.000    0.036    0.041
 mp_alltoall_i22                    396  9.3    0.031    0.038    0.031    0.038
 mp_waitall_2                        24 15.8    0.036    0.038    0.036    0.038
 -------------------------------------------------------------------------------

 The number of warnings for this run is : 1
 
 -------------------------------------------------------------------------------
  **** **** ******  **  PROGRAM ENDED AT                 2026-02-18 12:44:06.363
 ***** ** ***  *** **   PROGRAM RAN ON                                    cn0371
 **    ****   ******    PROGRAM RAN BY                                  metdyn02
 ***** **    ** ** **   PROGRAM PROCESS ID                               3425891
  **** **  *******  **  PROGRAM STOPPED IN /scratch/hpc-prf-metdyn/metdyn02_Remi
                                           /05_Dyson_orbitals/cp2k/closed/single
                                           t/B3LYP
